
     Program PWSCF v.6.5 starts on 17Dec2019 at 13:28: 4 

     This program is part of the open-source Quantum ESPRESSO suite
     for quantum simulation of materials; please cite
         "P. Giannozzi et al., J. Phys.:Condens. Matter 21 395502 (2009);
         "P. Giannozzi et al., J. Phys.:Condens. Matter 29 465901 (2017);
          URL http://www.quantum-espresso.org", 
     in publications or presentations arising from this work. More details at
     http://www.quantum-espresso.org/quote

     Parallel version (MPI), running on     2 processors

     MPI processes distributed on     1 nodes
     R & G space division:  proc/nbgrp/npool/nimage =       2
     Reading input from graphene.2_scf.in

     Current dimensions of program PWSCF are:
     Max number of different atomic species (ntypx) = 10
     Max number of k-points (npk) =  40000
     Max angular momentum in pseudopotentials (lmaxx) =  3
               file C.pbe-n-kjpaw_psl.1.0.0.UPF: wavefunction(s)  2S 2P renormalized

     Subspace diagonalization in iterative solution of the eigenvalue problem:
     a serial algorithm will be used

 
     Parallelization info
     --------------------
     sticks:   dense  smooth     PW     G-vecs:    dense   smooth      PW
     Min         336     336     99               130416   130416   20927
     Max         337     337    100               130459   130459   20964
     Sum         673     673    199               260875   260875   41891
 


     bravais-lattice index     =            4
     lattice parameter (alat)  =       4.6980  a.u.
     unit-cell volume          =    1671.6911 (a.u.)^3
     number of atoms/cell      =            2
     number of atomic types    =            1
     number of electrons       =         8.00
     number of Kohn-Sham states=           10
     kinetic-energy cutoff     =     110.0000  Ry
     charge density cutoff     =     440.0000  Ry
     convergence threshold     =      1.0E-08
     mixing beta               =       0.3000
     number of iterations used =            8  plain     mixing
     Exchange-correlation= SLA PW PBX PBC
                           (   1   4   3   4   0   0   0)

     celldm(1)=   4.698000  celldm(2)=   0.000000  celldm(3)=  18.616000
     celldm(4)=   0.000000  celldm(5)=   0.000000  celldm(6)=   0.000000

     crystal axes: (cart. coord. in units of alat)
               a(1) = (   1.000000   0.000000   0.000000 )  
               a(2) = (  -0.500000   0.866025   0.000000 )  
               a(3) = (   0.000000   0.000000  18.616000 )  

     reciprocal axes: (cart. coord. in units 2 pi/alat)
               b(1) = (  1.000000  0.577350  0.000000 )  
               b(2) = (  0.000000  1.154701  0.000000 )  
               b(3) = (  0.000000  0.000000  0.053717 )  


     PseudoPot. # 1 for C  read from file:
     /home/ubuntu/quantum_espresso_2019/SSSP_efficiency_pseudos/C.pbe-n-kjpaw_psl.1.0.0.UPF
     MD5 check sum: 5d2aebdfa2cae82b50a7e79e9516da0f
     Pseudo is Projector augmented-wave + core cor, Zval =  4.0
     Generated using "atomic" code by A. Dal Corso v.5.1
     Shape of augmentation charge: PSQ
     Using radial grid of 1073 points,  4 beta functions with: 
                l(1) =   0
                l(2) =   0
                l(3) =   1
                l(4) =   1
     Q(r) pseudized with 0 coefficients 


     atomic species   valence    mass     pseudopotential
        C              4.00    12.01000     C ( 1.00)

     24 Sym. Ops., with inversion, found


                                    s                        frac. trans.

      isym =  1     identity                                     

 cryst.   s( 1) = (     1          0          0      )
                  (     0          1          0      )
                  (     0          0          1      )

 cart.    s( 1) = (  1.0000000  0.0000000  0.0000000 )
                  (  0.0000000  1.0000000  0.0000000 )
                  (  0.0000000  0.0000000  1.0000000 )


      isym =  2     180 deg rotation - cart. axis [0,0,1]        

 cryst.   s( 2) = (    -1          0          0      )
                  (     0         -1          0      )
                  (     0          0          1      )

 cart.    s( 2) = ( -1.0000000  0.0000000  0.0000000 )
                  (  0.0000000 -1.0000000  0.0000000 )
                  (  0.0000000  0.0000000  1.0000000 )


      isym =  3     180 deg rotation - cart. axis [0,1,0]        

 cryst.   s( 3) = (    -1          0          0      )
                  (     1          1          0      )
                  (     0          0         -1      )

 cart.    s( 3) = ( -1.0000000  0.0000000  0.0000000 )
                  (  0.0000000  1.0000000  0.0000000 )
                  (  0.0000000  0.0000000 -1.0000000 )


      isym =  4     180 deg rotation - cart. axis [1,0,0]        

 cryst.   s( 4) = (     1          0          0      )
                  (    -1         -1          0      )
                  (     0          0         -1      )

 cart.    s( 4) = (  1.0000000  0.0000000  0.0000000 )
                  (  0.0000000 -1.0000000  0.0000000 )
                  (  0.0000000  0.0000000 -1.0000000 )


      isym =  5      60 deg rotation - cryst. axis [0,0,1]       

 cryst.   s( 5) = (     1          1          0      )
                  (    -1          0          0      )
                  (     0          0          1      )

 cart.    s( 5) = (  0.5000000 -0.8660254  0.0000000 )
                  (  0.8660254  0.5000000  0.0000000 )
                  (  0.0000000  0.0000000  1.0000000 )


      isym =  6      60 deg rotation - cryst. axis [0,0,-1]      

 cryst.   s( 6) = (     0         -1          0      )
                  (     1          1          0      )
                  (     0          0          1      )

 cart.    s( 6) = (  0.5000000  0.8660254  0.0000000 )
                  ( -0.8660254  0.5000000  0.0000000 )
                  (  0.0000000  0.0000000  1.0000000 )


      isym =  7     120 deg rotation - cryst. axis [0,0,1]       

 cryst.   s( 7) = (     0          1          0      )
                  (    -1         -1          0      )
                  (     0          0          1      )

 cart.    s( 7) = ( -0.5000000 -0.8660254  0.0000000 )
                  (  0.8660254 -0.5000000  0.0000000 )
                  (  0.0000000  0.0000000  1.0000000 )


      isym =  8     120 deg rotation - cryst. axis [0,0,-1]      

 cryst.   s( 8) = (    -1         -1          0      )
                  (     1          0          0      )
                  (     0          0          1      )

 cart.    s( 8) = ( -0.5000000  0.8660254  0.0000000 )
                  ( -0.8660254 -0.5000000  0.0000000 )
                  (  0.0000000  0.0000000  1.0000000 )


      isym =  9     180 deg rotation - cryst. axis [1,-1,0]      

 cryst.   s( 9) = (     0         -1          0      )
                  (    -1          0          0      )
                  (     0          0         -1      )

 cart.    s( 9) = (  0.5000000 -0.8660254  0.0000000 )
                  ( -0.8660254 -0.5000000  0.0000000 )
                  (  0.0000000  0.0000000 -1.0000000 )


      isym = 10     180 deg rotation - cryst. axis [2,1,0]       

 cryst.   s(10) = (     1          1          0      )
                  (     0         -1          0      )
                  (     0          0         -1      )

 cart.    s(10) = (  0.5000000  0.8660254  0.0000000 )
                  (  0.8660254 -0.5000000  0.0000000 )
                  (  0.0000000  0.0000000 -1.0000000 )


      isym = 11     180 deg rotation - cryst. axis [0,1,0]       

 cryst.   s(11) = (    -1         -1          0      )
                  (     0          1          0      )
                  (     0          0         -1      )

 cart.    s(11) = ( -0.5000000 -0.8660254  0.0000000 )
                  ( -0.8660254  0.5000000  0.0000000 )
                  (  0.0000000  0.0000000 -1.0000000 )


      isym = 12     180 deg rotation - cryst. axis [1,1,0]       

 cryst.   s(12) = (     0          1          0      )
                  (     1          0          0      )
                  (     0          0         -1      )

 cart.    s(12) = ( -0.5000000  0.8660254  0.0000000 )
                  (  0.8660254  0.5000000  0.0000000 )
                  (  0.0000000  0.0000000 -1.0000000 )


      isym = 13     inversion                                    

 cryst.   s(13) = (    -1          0          0      )
                  (     0         -1          0      )
                  (     0          0         -1      )

 cart.    s(13) = ( -1.0000000  0.0000000  0.0000000 )
                  (  0.0000000 -1.0000000  0.0000000 )
                  (  0.0000000  0.0000000 -1.0000000 )


      isym = 14     inv. 180 deg rotation - cart. axis [0,0,1]   

 cryst.   s(14) = (     1          0          0      )
                  (     0          1          0      )
                  (     0          0         -1      )

 cart.    s(14) = (  1.0000000  0.0000000  0.0000000 )
                  (  0.0000000  1.0000000  0.0000000 )
                  (  0.0000000  0.0000000 -1.0000000 )


      isym = 15     inv. 180 deg rotation - cart. axis [0,1,0]   

 cryst.   s(15) = (     1          0          0      )
                  (    -1         -1          0      )
                  (     0          0          1      )

 cart.    s(15) = (  1.0000000  0.0000000  0.0000000 )
                  (  0.0000000 -1.0000000  0.0000000 )
                  (  0.0000000  0.0000000  1.0000000 )


      isym = 16     inv. 180 deg rotation - cart. axis [1,0,0]   

 cryst.   s(16) = (    -1          0          0      )
                  (     1          1          0      )
                  (     0          0          1      )

 cart.    s(16) = ( -1.0000000  0.0000000  0.0000000 )
                  (  0.0000000  1.0000000  0.0000000 )
                  (  0.0000000  0.0000000  1.0000000 )


      isym = 17     inv.  60 deg rotation - cryst. axis [0,0,1]  

 cryst.   s(17) = (    -1         -1          0      )
                  (     1          0          0      )
                  (     0          0         -1      )

 cart.    s(17) = ( -0.5000000  0.8660254  0.0000000 )
                  ( -0.8660254 -0.5000000  0.0000000 )
                  (  0.0000000  0.0000000 -1.0000000 )


      isym = 18     inv.  60 deg rotation - cryst. axis [0,0,-1] 

 cryst.   s(18) = (     0          1          0      )
                  (    -1         -1          0      )
                  (     0          0         -1      )

 cart.    s(18) = ( -0.5000000 -0.8660254  0.0000000 )
                  (  0.8660254 -0.5000000  0.0000000 )
                  (  0.0000000  0.0000000 -1.0000000 )


      isym = 19     inv. 120 deg rotation - cryst. axis [0,0,1]  

 cryst.   s(19) = (     0         -1          0      )
                  (     1          1          0      )
                  (     0          0         -1      )

 cart.    s(19) = (  0.5000000  0.8660254  0.0000000 )
                  ( -0.8660254  0.5000000  0.0000000 )
                  (  0.0000000  0.0000000 -1.0000000 )


      isym = 20     inv. 120 deg rotation - cryst. axis [0,0,-1] 

 cryst.   s(20) = (     1          1          0      )
                  (    -1          0          0      )
                  (     0          0         -1      )

 cart.    s(20) = (  0.5000000 -0.8660254  0.0000000 )
                  (  0.8660254  0.5000000  0.0000000 )
                  (  0.0000000  0.0000000 -1.0000000 )


      isym = 21     inv. 180 deg rotation - cryst. axis [1,-1,0] 

 cryst.   s(21) = (     0          1          0      )
                  (     1          0          0      )
                  (     0          0          1      )

 cart.    s(21) = ( -0.5000000  0.8660254  0.0000000 )
                  (  0.8660254  0.5000000  0.0000000 )
                  (  0.0000000  0.0000000  1.0000000 )


      isym = 22     inv. 180 deg rotation - cryst. axis [2,1,0]  

 cryst.   s(22) = (    -1         -1          0      )
                  (     0          1          0      )
                  (     0          0          1      )

 cart.    s(22) = ( -0.5000000 -0.8660254  0.0000000 )
                  ( -0.8660254  0.5000000  0.0000000 )
                  (  0.0000000  0.0000000  1.0000000 )


      isym = 23     inv. 180 deg rotation - cryst. axis [0,1,0]  

 cryst.   s(23) = (     1          1          0      )
                  (     0         -1          0      )
                  (     0          0          1      )

 cart.    s(23) = (  0.5000000  0.8660254  0.0000000 )
                  (  0.8660254 -0.5000000  0.0000000 )
                  (  0.0000000  0.0000000  1.0000000 )


      isym = 24     inv. 180 deg rotation - cryst. axis [1,1,0]  

 cryst.   s(24) = (     0         -1          0      )
                  (    -1          0          0      )
                  (     0          0          1      )

 cart.    s(24) = (  0.5000000 -0.8660254  0.0000000 )
                  ( -0.8660254 -0.5000000  0.0000000 )
                  (  0.0000000  0.0000000  1.0000000 )


     point group D_6h(6/mmm)
     there are 12 classes
     the character table:

       E     2C6   2C3   C2    3C2'  3C2'' i     2S3   2S6   s_h   3s_d  3s_v 
A_1g   1.00  1.00  1.00  1.00  1.00  1.00  1.00  1.00  1.00  1.00  1.00  1.00
A_2g   1.00  1.00  1.00  1.00 -1.00 -1.00  1.00  1.00  1.00  1.00 -1.00 -1.00
B_1g   1.00 -1.00  1.00 -1.00  1.00 -1.00  1.00 -1.00  1.00 -1.00  1.00 -1.00
B_2g   1.00 -1.00  1.00 -1.00 -1.00  1.00  1.00 -1.00  1.00 -1.00 -1.00  1.00
E_1g   2.00  1.00 -1.00 -2.00  0.00  0.00  2.00  1.00 -1.00 -2.00  0.00  0.00
E_2g   2.00 -1.00 -1.00  2.00  0.00  0.00  2.00 -1.00 -1.00  2.00  0.00  0.00
A_1u   1.00  1.00  1.00  1.00  1.00  1.00 -1.00 -1.00 -1.00 -1.00 -1.00 -1.00
A_2u   1.00  1.00  1.00  1.00 -1.00 -1.00 -1.00 -1.00 -1.00 -1.00  1.00  1.00
B_1u   1.00 -1.00  1.00 -1.00  1.00 -1.00 -1.00  1.00 -1.00  1.00 -1.00  1.00
B_2u   1.00 -1.00  1.00 -1.00 -1.00  1.00 -1.00  1.00 -1.00  1.00  1.00 -1.00
E_1u   2.00  1.00 -1.00 -2.00  0.00  0.00 -2.00 -1.00  1.00  2.00  0.00  0.00
E_2u   2.00 -1.00 -1.00  2.00  0.00  0.00 -2.00  1.00  1.00 -2.00  0.00  0.00

     the symmetry operations in each class and the name of the first element:

     E        1
          identity                                               
     2C6      5    6
           60 deg rotation - cryst. axis [0,0,1]                 
     2C3      7    8
          120 deg rotation - cryst. axis [0,0,1]                 
     C2       2
          180 deg rotation - cart. axis [0,0,1]                  
     3C2'     4   12   11
          180 deg rotation - cart. axis [1,0,0]                  
     3C2''    3    9   10
          180 deg rotation - cart. axis [0,1,0]                  
     i       13
          inversion                                              
     2S3     17   18
          inv.  60 deg rotation - cryst. axis [0,0,1]            
     2S6     19   20
          inv. 120 deg rotation - cryst. axis [0,0,1]            
     s_h     14
          inv. 180 deg rotation - cart. axis [0,0,1]             
     3s_d    16   24   23
          inv. 180 deg rotation - cart. axis [1,0,0]             
     3s_v    15   21   22
          inv. 180 deg rotation - cart. axis [0,1,0]             

   Cartesian axes

     site n.     atom                  positions (alat units)
         1           C   tau(   1) = (   0.5000000   0.2886751   0.0000000  )
         2           C   tau(   2) = (   0.0000000   0.5773503   0.0000000  )

   Crystallographic axes

     site n.     atom                  positions (cryst. coord.)
         1           C   tau(   1) = (  0.6666667  0.3333333  0.0000000  )
         2           C   tau(   2) = (  0.3333333  0.6666667  0.0000000  )

     number of k points=   217  Methfessel-Paxton smearing, width (Ry)=  0.1000
                       cart. coord. in units 2pi/alat
        k(    1) = (   0.0000000   0.0000000   0.0000000), wk =   0.0008681
        k(    2) = (   0.0000000   0.0240563   0.0000000), wk =   0.0052083
        k(    3) = (   0.0000000   0.0481125   0.0000000), wk =   0.0052083
        k(    4) = (   0.0000000   0.0721688   0.0000000), wk =   0.0052083
        k(    5) = (   0.0000000   0.0962250   0.0000000), wk =   0.0052083
        k(    6) = (   0.0000000   0.1202813   0.0000000), wk =   0.0052083
        k(    7) = (   0.0000000   0.1443376   0.0000000), wk =   0.0052083
        k(    8) = (   0.0000000   0.1683938   0.0000000), wk =   0.0052083
        k(    9) = (   0.0000000   0.1924501   0.0000000), wk =   0.0052083
        k(   10) = (   0.0000000   0.2165064   0.0000000), wk =   0.0052083
        k(   11) = (   0.0000000   0.2405626   0.0000000), wk =   0.0052083
        k(   12) = (   0.0000000   0.2646189   0.0000000), wk =   0.0052083
        k(   13) = (   0.0000000   0.2886751   0.0000000), wk =   0.0052083
        k(   14) = (   0.0000000   0.3127314   0.0000000), wk =   0.0052083
        k(   15) = (   0.0000000   0.3367877   0.0000000), wk =   0.0052083
        k(   16) = (   0.0000000   0.3608439   0.0000000), wk =   0.0052083
        k(   17) = (   0.0000000   0.3849002   0.0000000), wk =   0.0052083
        k(   18) = (   0.0000000   0.4089564   0.0000000), wk =   0.0052083
        k(   19) = (   0.0000000   0.4330127   0.0000000), wk =   0.0052083
        k(   20) = (   0.0000000   0.4570690   0.0000000), wk =   0.0052083
        k(   21) = (   0.0000000   0.4811252   0.0000000), wk =   0.0052083
        k(   22) = (   0.0000000   0.5051815   0.0000000), wk =   0.0052083
        k(   23) = (   0.0000000   0.5292377   0.0000000), wk =   0.0052083
        k(   24) = (   0.0000000   0.5532940   0.0000000), wk =   0.0052083
        k(   25) = (   0.0000000  -0.5773503   0.0000000), wk =   0.0026042
        k(   26) = (   0.0208333   0.0360844   0.0000000), wk =   0.0052083
        k(   27) = (   0.0208333   0.0601407   0.0000000), wk =   0.0104167
        k(   28) = (   0.0208333   0.0841969   0.0000000), wk =   0.0104167
        k(   29) = (   0.0208333   0.1082532   0.0000000), wk =   0.0104167
        k(   30) = (   0.0208333   0.1323094   0.0000000), wk =   0.0104167
        k(   31) = (   0.0208333   0.1563657   0.0000000), wk =   0.0104167
        k(   32) = (   0.0208333   0.1804220   0.0000000), wk =   0.0104167
        k(   33) = (   0.0208333   0.2044782   0.0000000), wk =   0.0104167
        k(   34) = (   0.0208333   0.2285345   0.0000000), wk =   0.0104167
        k(   35) = (   0.0208333   0.2525907   0.0000000), wk =   0.0104167
        k(   36) = (   0.0208333   0.2766470   0.0000000), wk =   0.0104167
        k(   37) = (   0.0208333   0.3007033   0.0000000), wk =   0.0104167
        k(   38) = (   0.0208333   0.3247595   0.0000000), wk =   0.0104167
        k(   39) = (   0.0208333   0.3488158   0.0000000), wk =   0.0104167
        k(   40) = (   0.0208333   0.3728720   0.0000000), wk =   0.0104167
        k(   41) = (   0.0208333   0.3969283   0.0000000), wk =   0.0104167
        k(   42) = (   0.0208333   0.4209846   0.0000000), wk =   0.0104167
        k(   43) = (   0.0208333   0.4450408   0.0000000), wk =   0.0104167
        k(   44) = (   0.0208333   0.4690971   0.0000000), wk =   0.0104167
        k(   45) = (   0.0208333   0.4931534   0.0000000), wk =   0.0104167
        k(   46) = (   0.0208333   0.5172096   0.0000000), wk =   0.0104167
        k(   47) = (   0.0208333   0.5412659   0.0000000), wk =   0.0104167
        k(   48) = (   0.0208333   0.5653221   0.0000000), wk =   0.0104167
        k(   49) = (   0.0416667   0.0721688   0.0000000), wk =   0.0052083
        k(   50) = (   0.0416667   0.0962250   0.0000000), wk =   0.0104167
        k(   51) = (   0.0416667   0.1202813   0.0000000), wk =   0.0104167
        k(   52) = (   0.0416667   0.1443376   0.0000000), wk =   0.0104167
        k(   53) = (   0.0416667   0.1683938   0.0000000), wk =   0.0104167
        k(   54) = (   0.0416667   0.1924501   0.0000000), wk =   0.0104167
        k(   55) = (   0.0416667   0.2165064   0.0000000), wk =   0.0104167
        k(   56) = (   0.0416667   0.2405626   0.0000000), wk =   0.0104167
        k(   57) = (   0.0416667   0.2646189   0.0000000), wk =   0.0104167
        k(   58) = (   0.0416667   0.2886751   0.0000000), wk =   0.0104167
        k(   59) = (   0.0416667   0.3127314   0.0000000), wk =   0.0104167
        k(   60) = (   0.0416667   0.3367877   0.0000000), wk =   0.0104167
        k(   61) = (   0.0416667   0.3608439   0.0000000), wk =   0.0104167
        k(   62) = (   0.0416667   0.3849002   0.0000000), wk =   0.0104167
        k(   63) = (   0.0416667   0.4089564   0.0000000), wk =   0.0104167
        k(   64) = (   0.0416667   0.4330127   0.0000000), wk =   0.0104167
        k(   65) = (   0.0416667   0.4570690   0.0000000), wk =   0.0104167
        k(   66) = (   0.0416667   0.4811252   0.0000000), wk =   0.0104167
        k(   67) = (   0.0416667   0.5051815   0.0000000), wk =   0.0104167
        k(   68) = (   0.0416667   0.5292377   0.0000000), wk =   0.0104167
        k(   69) = (   0.0416667   0.5532940   0.0000000), wk =   0.0104167
        k(   70) = (   0.0416667   0.5773503   0.0000000), wk =   0.0052083
        k(   71) = (   0.0625000   0.1082532   0.0000000), wk =   0.0052083
        k(   72) = (   0.0625000   0.1323094   0.0000000), wk =   0.0104167
        k(   73) = (   0.0625000   0.1563657   0.0000000), wk =   0.0104167
        k(   74) = (   0.0625000   0.1804220   0.0000000), wk =   0.0104167
        k(   75) = (   0.0625000   0.2044782   0.0000000), wk =   0.0104167
        k(   76) = (   0.0625000   0.2285345   0.0000000), wk =   0.0104167
        k(   77) = (   0.0625000   0.2525907   0.0000000), wk =   0.0104167
        k(   78) = (   0.0625000   0.2766470   0.0000000), wk =   0.0104167
        k(   79) = (   0.0625000   0.3007033   0.0000000), wk =   0.0104167
        k(   80) = (   0.0625000   0.3247595   0.0000000), wk =   0.0104167
        k(   81) = (   0.0625000   0.3488158   0.0000000), wk =   0.0104167
        k(   82) = (   0.0625000   0.3728720   0.0000000), wk =   0.0104167
        k(   83) = (   0.0625000   0.3969283   0.0000000), wk =   0.0104167
        k(   84) = (   0.0625000   0.4209846   0.0000000), wk =   0.0104167
        k(   85) = (   0.0625000   0.4450408   0.0000000), wk =   0.0104167
        k(   86) = (   0.0625000   0.4690971   0.0000000), wk =   0.0104167
        k(   87) = (   0.0625000   0.4931534   0.0000000), wk =   0.0104167
        k(   88) = (   0.0625000   0.5172096   0.0000000), wk =   0.0104167
        k(   89) = (   0.0625000   0.5412659   0.0000000), wk =   0.0104167
        k(   90) = (   0.0625000   0.5653221   0.0000000), wk =   0.0104167
        k(   91) = (   0.0833333   0.1443376   0.0000000), wk =   0.0052083
        k(   92) = (   0.0833333   0.1683938   0.0000000), wk =   0.0104167
        k(   93) = (   0.0833333   0.1924501   0.0000000), wk =   0.0104167
        k(   94) = (   0.0833333   0.2165064   0.0000000), wk =   0.0104167
        k(   95) = (   0.0833333   0.2405626   0.0000000), wk =   0.0104167
        k(   96) = (   0.0833333   0.2646189   0.0000000), wk =   0.0104167
        k(   97) = (   0.0833333   0.2886751   0.0000000), wk =   0.0104167
        k(   98) = (   0.0833333   0.3127314   0.0000000), wk =   0.0104167
        k(   99) = (   0.0833333   0.3367877   0.0000000), wk =   0.0104167
        k(  100) = (   0.0833333   0.3608439   0.0000000), wk =   0.0104167
        k(  101) = (   0.0833333   0.3849002   0.0000000), wk =   0.0104167
        k(  102) = (   0.0833333   0.4089564   0.0000000), wk =   0.0104167
        k(  103) = (   0.0833333   0.4330127   0.0000000), wk =   0.0104167
        k(  104) = (   0.0833333   0.4570690   0.0000000), wk =   0.0104167
        k(  105) = (   0.0833333   0.4811252   0.0000000), wk =   0.0104167
        k(  106) = (   0.0833333   0.5051815   0.0000000), wk =   0.0104167
        k(  107) = (   0.0833333   0.5292377   0.0000000), wk =   0.0104167
        k(  108) = (   0.0833333   0.5532940   0.0000000), wk =   0.0104167
        k(  109) = (   0.0833333   0.5773503   0.0000000), wk =   0.0052083
        k(  110) = (   0.1041667   0.1804220   0.0000000), wk =   0.0052083
        k(  111) = (   0.1041667   0.2044782   0.0000000), wk =   0.0104167
        k(  112) = (   0.1041667   0.2285345   0.0000000), wk =   0.0104167
        k(  113) = (   0.1041667   0.2525907   0.0000000), wk =   0.0104167
        k(  114) = (   0.1041667   0.2766470   0.0000000), wk =   0.0104167
        k(  115) = (   0.1041667   0.3007033   0.0000000), wk =   0.0104167
        k(  116) = (   0.1041667   0.3247595   0.0000000), wk =   0.0104167
        k(  117) = (   0.1041667   0.3488158   0.0000000), wk =   0.0104167
        k(  118) = (   0.1041667   0.3728720   0.0000000), wk =   0.0104167
        k(  119) = (   0.1041667   0.3969283   0.0000000), wk =   0.0104167
        k(  120) = (   0.1041667   0.4209846   0.0000000), wk =   0.0104167
        k(  121) = (   0.1041667   0.4450408   0.0000000), wk =   0.0104167
        k(  122) = (   0.1041667   0.4690971   0.0000000), wk =   0.0104167
        k(  123) = (   0.1041667   0.4931534   0.0000000), wk =   0.0104167
        k(  124) = (   0.1041667   0.5172096   0.0000000), wk =   0.0104167
        k(  125) = (   0.1041667   0.5412659   0.0000000), wk =   0.0104167
        k(  126) = (   0.1041667   0.5653221   0.0000000), wk =   0.0104167
        k(  127) = (   0.1250000   0.2165064   0.0000000), wk =   0.0052083
        k(  128) = (   0.1250000   0.2405626   0.0000000), wk =   0.0104167
        k(  129) = (   0.1250000   0.2646189   0.0000000), wk =   0.0104167
        k(  130) = (   0.1250000   0.2886751   0.0000000), wk =   0.0104167
        k(  131) = (   0.1250000   0.3127314   0.0000000), wk =   0.0104167
        k(  132) = (   0.1250000   0.3367877   0.0000000), wk =   0.0104167
        k(  133) = (   0.1250000   0.3608439   0.0000000), wk =   0.0104167
        k(  134) = (   0.1250000   0.3849002   0.0000000), wk =   0.0104167
        k(  135) = (   0.1250000   0.4089564   0.0000000), wk =   0.0104167
        k(  136) = (   0.1250000   0.4330127   0.0000000), wk =   0.0104167
        k(  137) = (   0.1250000   0.4570690   0.0000000), wk =   0.0104167
        k(  138) = (   0.1250000   0.4811252   0.0000000), wk =   0.0104167
        k(  139) = (   0.1250000   0.5051815   0.0000000), wk =   0.0104167
        k(  140) = (   0.1250000   0.5292377   0.0000000), wk =   0.0104167
        k(  141) = (   0.1250000   0.5532940   0.0000000), wk =   0.0104167
        k(  142) = (   0.1250000   0.5773503   0.0000000), wk =   0.0052083
        k(  143) = (   0.1458333   0.2525907   0.0000000), wk =   0.0052083
        k(  144) = (   0.1458333   0.2766470   0.0000000), wk =   0.0104167
        k(  145) = (   0.1458333   0.3007033   0.0000000), wk =   0.0104167
        k(  146) = (   0.1458333   0.3247595   0.0000000), wk =   0.0104167
        k(  147) = (   0.1458333   0.3488158   0.0000000), wk =   0.0104167
        k(  148) = (   0.1458333   0.3728720   0.0000000), wk =   0.0104167
        k(  149) = (   0.1458333   0.3969283   0.0000000), wk =   0.0104167
        k(  150) = (   0.1458333   0.4209846   0.0000000), wk =   0.0104167
        k(  151) = (   0.1458333   0.4450408   0.0000000), wk =   0.0104167
        k(  152) = (   0.1458333   0.4690971   0.0000000), wk =   0.0104167
        k(  153) = (   0.1458333   0.4931534   0.0000000), wk =   0.0104167
        k(  154) = (   0.1458333   0.5172096   0.0000000), wk =   0.0104167
        k(  155) = (   0.1458333   0.5412659   0.0000000), wk =   0.0104167
        k(  156) = (   0.1458333   0.5653221   0.0000000), wk =   0.0104167
        k(  157) = (   0.1666667   0.2886751   0.0000000), wk =   0.0052083
        k(  158) = (   0.1666667   0.3127314   0.0000000), wk =   0.0104167
        k(  159) = (   0.1666667   0.3367877   0.0000000), wk =   0.0104167
        k(  160) = (   0.1666667   0.3608439   0.0000000), wk =   0.0104167
        k(  161) = (   0.1666667   0.3849002   0.0000000), wk =   0.0104167
        k(  162) = (   0.1666667   0.4089564   0.0000000), wk =   0.0104167
        k(  163) = (   0.1666667   0.4330127   0.0000000), wk =   0.0104167
        k(  164) = (   0.1666667   0.4570690   0.0000000), wk =   0.0104167
        k(  165) = (   0.1666667   0.4811252   0.0000000), wk =   0.0104167
        k(  166) = (   0.1666667   0.5051815   0.0000000), wk =   0.0104167
        k(  167) = (   0.1666667   0.5292377   0.0000000), wk =   0.0104167
        k(  168) = (   0.1666667   0.5532940   0.0000000), wk =   0.0104167
        k(  169) = (   0.1666667   0.5773503   0.0000000), wk =   0.0052083
        k(  170) = (   0.1875000   0.3247595   0.0000000), wk =   0.0052083
        k(  171) = (   0.1875000   0.3488158   0.0000000), wk =   0.0104167
        k(  172) = (   0.1875000   0.3728720   0.0000000), wk =   0.0104167
        k(  173) = (   0.1875000   0.3969283   0.0000000), wk =   0.0104167
        k(  174) = (   0.1875000   0.4209846   0.0000000), wk =   0.0104167
        k(  175) = (   0.1875000   0.4450408   0.0000000), wk =   0.0104167
        k(  176) = (   0.1875000   0.4690971   0.0000000), wk =   0.0104167
        k(  177) = (   0.1875000   0.4931534   0.0000000), wk =   0.0104167
        k(  178) = (   0.1875000   0.5172096   0.0000000), wk =   0.0104167
        k(  179) = (   0.1875000   0.5412659   0.0000000), wk =   0.0104167
        k(  180) = (   0.1875000   0.5653221   0.0000000), wk =   0.0104167
        k(  181) = (   0.2083333   0.3608439   0.0000000), wk =   0.0052083
        k(  182) = (   0.2083333   0.3849002   0.0000000), wk =   0.0104167
        k(  183) = (   0.2083333   0.4089564   0.0000000), wk =   0.0104167
        k(  184) = (   0.2083333   0.4330127   0.0000000), wk =   0.0104167
        k(  185) = (   0.2083333   0.4570690   0.0000000), wk =   0.0104167
        k(  186) = (   0.2083333   0.4811252   0.0000000), wk =   0.0104167
        k(  187) = (   0.2083333   0.5051815   0.0000000), wk =   0.0104167
        k(  188) = (   0.2083333   0.5292377   0.0000000), wk =   0.0104167
        k(  189) = (   0.2083333   0.5532940   0.0000000), wk =   0.0104167
        k(  190) = (   0.2083333   0.5773503   0.0000000), wk =   0.0052083
        k(  191) = (   0.2291667   0.3969283   0.0000000), wk =   0.0052083
        k(  192) = (   0.2291667   0.4209846   0.0000000), wk =   0.0104167
        k(  193) = (   0.2291667   0.4450408   0.0000000), wk =   0.0104167
        k(  194) = (   0.2291667   0.4690971   0.0000000), wk =   0.0104167
        k(  195) = (   0.2291667   0.4931534   0.0000000), wk =   0.0104167
        k(  196) = (   0.2291667   0.5172096   0.0000000), wk =   0.0104167
        k(  197) = (   0.2291667   0.5412659   0.0000000), wk =   0.0104167
        k(  198) = (   0.2291667   0.5653221   0.0000000), wk =   0.0104167
        k(  199) = (   0.2500000   0.4330127   0.0000000), wk =   0.0052083
        k(  200) = (   0.2500000   0.4570690   0.0000000), wk =   0.0104167
        k(  201) = (   0.2500000   0.4811252   0.0000000), wk =   0.0104167
        k(  202) = (   0.2500000   0.5051815   0.0000000), wk =   0.0104167
        k(  203) = (   0.2500000   0.5292377   0.0000000), wk =   0.0104167
        k(  204) = (   0.2500000   0.5532940   0.0000000), wk =   0.0104167
        k(  205) = (   0.2500000   0.5773503   0.0000000), wk =   0.0052083
        k(  206) = (   0.2708333   0.4690971   0.0000000), wk =   0.0052083
        k(  207) = (   0.2708333   0.4931534   0.0000000), wk =   0.0104167
        k(  208) = (   0.2708333   0.5172096   0.0000000), wk =   0.0104167
        k(  209) = (   0.2708333   0.5412659   0.0000000), wk =   0.0104167
        k(  210) = (   0.2708333   0.5653221   0.0000000), wk =   0.0104167
        k(  211) = (   0.2916667   0.5051815   0.0000000), wk =   0.0052083
        k(  212) = (   0.2916667   0.5292377   0.0000000), wk =   0.0104167
        k(  213) = (   0.2916667   0.5532940   0.0000000), wk =   0.0104167
        k(  214) = (   0.2916667   0.5773503   0.0000000), wk =   0.0052083
        k(  215) = (   0.3125000   0.5412659   0.0000000), wk =   0.0052083
        k(  216) = (   0.3125000   0.5653221   0.0000000), wk =   0.0104167
        k(  217) = (   0.3333333   0.5773503   0.0000000), wk =   0.0017361

                       cryst. coord.
        k(    1) = (   0.0000000   0.0000000   0.0000000), wk =   0.0008681
        k(    2) = (   0.0000000   0.0208333   0.0000000), wk =   0.0052083
        k(    3) = (   0.0000000   0.0416667   0.0000000), wk =   0.0052083
        k(    4) = (   0.0000000   0.0625000   0.0000000), wk =   0.0052083
        k(    5) = (   0.0000000   0.0833333   0.0000000), wk =   0.0052083
        k(    6) = (   0.0000000   0.1041667   0.0000000), wk =   0.0052083
        k(    7) = (   0.0000000   0.1250000   0.0000000), wk =   0.0052083
        k(    8) = (   0.0000000   0.1458333   0.0000000), wk =   0.0052083
        k(    9) = (   0.0000000   0.1666667   0.0000000), wk =   0.0052083
        k(   10) = (   0.0000000   0.1875000   0.0000000), wk =   0.0052083
        k(   11) = (   0.0000000   0.2083333   0.0000000), wk =   0.0052083
        k(   12) = (   0.0000000   0.2291667   0.0000000), wk =   0.0052083
        k(   13) = (   0.0000000   0.2500000   0.0000000), wk =   0.0052083
        k(   14) = (   0.0000000   0.2708333   0.0000000), wk =   0.0052083
        k(   15) = (   0.0000000   0.2916667   0.0000000), wk =   0.0052083
        k(   16) = (   0.0000000   0.3125000   0.0000000), wk =   0.0052083
        k(   17) = (   0.0000000   0.3333333   0.0000000), wk =   0.0052083
        k(   18) = (   0.0000000   0.3541667   0.0000000), wk =   0.0052083
        k(   19) = (   0.0000000   0.3750000   0.0000000), wk =   0.0052083
        k(   20) = (   0.0000000   0.3958333   0.0000000), wk =   0.0052083
        k(   21) = (   0.0000000   0.4166667   0.0000000), wk =   0.0052083
        k(   22) = (   0.0000000   0.4375000   0.0000000), wk =   0.0052083
        k(   23) = (   0.0000000   0.4583333   0.0000000), wk =   0.0052083
        k(   24) = (   0.0000000   0.4791667   0.0000000), wk =   0.0052083
        k(   25) = (   0.0000000  -0.5000000   0.0000000), wk =   0.0026042
        k(   26) = (   0.0208333   0.0208333   0.0000000), wk =   0.0052083
        k(   27) = (   0.0208333   0.0416667   0.0000000), wk =   0.0104167
        k(   28) = (   0.0208333   0.0625000   0.0000000), wk =   0.0104167
        k(   29) = (   0.0208333   0.0833333   0.0000000), wk =   0.0104167
        k(   30) = (   0.0208333   0.1041667   0.0000000), wk =   0.0104167
        k(   31) = (   0.0208333   0.1250000   0.0000000), wk =   0.0104167
        k(   32) = (   0.0208333   0.1458333   0.0000000), wk =   0.0104167
        k(   33) = (   0.0208333   0.1666667   0.0000000), wk =   0.0104167
        k(   34) = (   0.0208333   0.1875000   0.0000000), wk =   0.0104167
        k(   35) = (   0.0208333   0.2083333   0.0000000), wk =   0.0104167
        k(   36) = (   0.0208333   0.2291667   0.0000000), wk =   0.0104167
        k(   37) = (   0.0208333   0.2500000   0.0000000), wk =   0.0104167
        k(   38) = (   0.0208333   0.2708333   0.0000000), wk =   0.0104167
        k(   39) = (   0.0208333   0.2916667   0.0000000), wk =   0.0104167
        k(   40) = (   0.0208333   0.3125000   0.0000000), wk =   0.0104167
        k(   41) = (   0.0208333   0.3333333   0.0000000), wk =   0.0104167
        k(   42) = (   0.0208333   0.3541667   0.0000000), wk =   0.0104167
        k(   43) = (   0.0208333   0.3750000   0.0000000), wk =   0.0104167
        k(   44) = (   0.0208333   0.3958333   0.0000000), wk =   0.0104167
        k(   45) = (   0.0208333   0.4166667   0.0000000), wk =   0.0104167
        k(   46) = (   0.0208333   0.4375000   0.0000000), wk =   0.0104167
        k(   47) = (   0.0208333   0.4583333   0.0000000), wk =   0.0104167
        k(   48) = (   0.0208333   0.4791667   0.0000000), wk =   0.0104167
        k(   49) = (   0.0416667   0.0416667   0.0000000), wk =   0.0052083
        k(   50) = (   0.0416667   0.0625000   0.0000000), wk =   0.0104167
        k(   51) = (   0.0416667   0.0833333   0.0000000), wk =   0.0104167
        k(   52) = (   0.0416667   0.1041667   0.0000000), wk =   0.0104167
        k(   53) = (   0.0416667   0.1250000   0.0000000), wk =   0.0104167
        k(   54) = (   0.0416667   0.1458333   0.0000000), wk =   0.0104167
        k(   55) = (   0.0416667   0.1666667   0.0000000), wk =   0.0104167
        k(   56) = (   0.0416667   0.1875000   0.0000000), wk =   0.0104167
        k(   57) = (   0.0416667   0.2083333   0.0000000), wk =   0.0104167
        k(   58) = (   0.0416667   0.2291667   0.0000000), wk =   0.0104167
        k(   59) = (   0.0416667   0.2500000   0.0000000), wk =   0.0104167
        k(   60) = (   0.0416667   0.2708333   0.0000000), wk =   0.0104167
        k(   61) = (   0.0416667   0.2916667   0.0000000), wk =   0.0104167
        k(   62) = (   0.0416667   0.3125000   0.0000000), wk =   0.0104167
        k(   63) = (   0.0416667   0.3333333   0.0000000), wk =   0.0104167
        k(   64) = (   0.0416667   0.3541667   0.0000000), wk =   0.0104167
        k(   65) = (   0.0416667   0.3750000   0.0000000), wk =   0.0104167
        k(   66) = (   0.0416667   0.3958333   0.0000000), wk =   0.0104167
        k(   67) = (   0.0416667   0.4166667   0.0000000), wk =   0.0104167
        k(   68) = (   0.0416667   0.4375000   0.0000000), wk =   0.0104167
        k(   69) = (   0.0416667   0.4583333   0.0000000), wk =   0.0104167
        k(   70) = (   0.0416667   0.4791667   0.0000000), wk =   0.0052083
        k(   71) = (   0.0625000   0.0625000   0.0000000), wk =   0.0052083
        k(   72) = (   0.0625000   0.0833333   0.0000000), wk =   0.0104167
        k(   73) = (   0.0625000   0.1041667   0.0000000), wk =   0.0104167
        k(   74) = (   0.0625000   0.1250000   0.0000000), wk =   0.0104167
        k(   75) = (   0.0625000   0.1458333   0.0000000), wk =   0.0104167
        k(   76) = (   0.0625000   0.1666667   0.0000000), wk =   0.0104167
        k(   77) = (   0.0625000   0.1875000   0.0000000), wk =   0.0104167
        k(   78) = (   0.0625000   0.2083333   0.0000000), wk =   0.0104167
        k(   79) = (   0.0625000   0.2291667   0.0000000), wk =   0.0104167
        k(   80) = (   0.0625000   0.2500000   0.0000000), wk =   0.0104167
        k(   81) = (   0.0625000   0.2708333   0.0000000), wk =   0.0104167
        k(   82) = (   0.0625000   0.2916667   0.0000000), wk =   0.0104167
        k(   83) = (   0.0625000   0.3125000   0.0000000), wk =   0.0104167
        k(   84) = (   0.0625000   0.3333333   0.0000000), wk =   0.0104167
        k(   85) = (   0.0625000   0.3541667   0.0000000), wk =   0.0104167
        k(   86) = (   0.0625000   0.3750000   0.0000000), wk =   0.0104167
        k(   87) = (   0.0625000   0.3958333   0.0000000), wk =   0.0104167
        k(   88) = (   0.0625000   0.4166667   0.0000000), wk =   0.0104167
        k(   89) = (   0.0625000   0.4375000   0.0000000), wk =   0.0104167
        k(   90) = (   0.0625000   0.4583333   0.0000000), wk =   0.0104167
        k(   91) = (   0.0833333   0.0833333   0.0000000), wk =   0.0052083
        k(   92) = (   0.0833333   0.1041667   0.0000000), wk =   0.0104167
        k(   93) = (   0.0833333   0.1250000   0.0000000), wk =   0.0104167
        k(   94) = (   0.0833333   0.1458333   0.0000000), wk =   0.0104167
        k(   95) = (   0.0833333   0.1666667   0.0000000), wk =   0.0104167
        k(   96) = (   0.0833333   0.1875000   0.0000000), wk =   0.0104167
        k(   97) = (   0.0833333   0.2083333   0.0000000), wk =   0.0104167
        k(   98) = (   0.0833333   0.2291667   0.0000000), wk =   0.0104167
        k(   99) = (   0.0833333   0.2500000   0.0000000), wk =   0.0104167
        k(  100) = (   0.0833333   0.2708333   0.0000000), wk =   0.0104167
        k(  101) = (   0.0833333   0.2916667   0.0000000), wk =   0.0104167
        k(  102) = (   0.0833333   0.3125000   0.0000000), wk =   0.0104167
        k(  103) = (   0.0833333   0.3333333   0.0000000), wk =   0.0104167
        k(  104) = (   0.0833333   0.3541667   0.0000000), wk =   0.0104167
        k(  105) = (   0.0833333   0.3750000   0.0000000), wk =   0.0104167
        k(  106) = (   0.0833333   0.3958333   0.0000000), wk =   0.0104167
        k(  107) = (   0.0833333   0.4166667   0.0000000), wk =   0.0104167
        k(  108) = (   0.0833333   0.4375000   0.0000000), wk =   0.0104167
        k(  109) = (   0.0833333   0.4583333   0.0000000), wk =   0.0052083
        k(  110) = (   0.1041667   0.1041667   0.0000000), wk =   0.0052083
        k(  111) = (   0.1041667   0.1250000   0.0000000), wk =   0.0104167
        k(  112) = (   0.1041667   0.1458333   0.0000000), wk =   0.0104167
        k(  113) = (   0.1041667   0.1666667   0.0000000), wk =   0.0104167
        k(  114) = (   0.1041667   0.1875000   0.0000000), wk =   0.0104167
        k(  115) = (   0.1041667   0.2083333   0.0000000), wk =   0.0104167
        k(  116) = (   0.1041667   0.2291667   0.0000000), wk =   0.0104167
        k(  117) = (   0.1041667   0.2500000   0.0000000), wk =   0.0104167
        k(  118) = (   0.1041667   0.2708333   0.0000000), wk =   0.0104167
        k(  119) = (   0.1041667   0.2916667   0.0000000), wk =   0.0104167
        k(  120) = (   0.1041667   0.3125000   0.0000000), wk =   0.0104167
        k(  121) = (   0.1041667   0.3333333   0.0000000), wk =   0.0104167
        k(  122) = (   0.1041667   0.3541667   0.0000000), wk =   0.0104167
        k(  123) = (   0.1041667   0.3750000   0.0000000), wk =   0.0104167
        k(  124) = (   0.1041667   0.3958333   0.0000000), wk =   0.0104167
        k(  125) = (   0.1041667   0.4166667   0.0000000), wk =   0.0104167
        k(  126) = (   0.1041667   0.4375000   0.0000000), wk =   0.0104167
        k(  127) = (   0.1250000   0.1250000   0.0000000), wk =   0.0052083
        k(  128) = (   0.1250000   0.1458333   0.0000000), wk =   0.0104167
        k(  129) = (   0.1250000   0.1666667   0.0000000), wk =   0.0104167
        k(  130) = (   0.1250000   0.1875000   0.0000000), wk =   0.0104167
        k(  131) = (   0.1250000   0.2083333   0.0000000), wk =   0.0104167
        k(  132) = (   0.1250000   0.2291667   0.0000000), wk =   0.0104167
        k(  133) = (   0.1250000   0.2500000   0.0000000), wk =   0.0104167
        k(  134) = (   0.1250000   0.2708333   0.0000000), wk =   0.0104167
        k(  135) = (   0.1250000   0.2916667   0.0000000), wk =   0.0104167
        k(  136) = (   0.1250000   0.3125000   0.0000000), wk =   0.0104167
        k(  137) = (   0.1250000   0.3333333   0.0000000), wk =   0.0104167
        k(  138) = (   0.1250000   0.3541667   0.0000000), wk =   0.0104167
        k(  139) = (   0.1250000   0.3750000   0.0000000), wk =   0.0104167
        k(  140) = (   0.1250000   0.3958333   0.0000000), wk =   0.0104167
        k(  141) = (   0.1250000   0.4166667   0.0000000), wk =   0.0104167
        k(  142) = (   0.1250000   0.4375000   0.0000000), wk =   0.0052083
        k(  143) = (   0.1458333   0.1458333   0.0000000), wk =   0.0052083
        k(  144) = (   0.1458333   0.1666667   0.0000000), wk =   0.0104167
        k(  145) = (   0.1458333   0.1875000   0.0000000), wk =   0.0104167
        k(  146) = (   0.1458333   0.2083333   0.0000000), wk =   0.0104167
        k(  147) = (   0.1458333   0.2291667   0.0000000), wk =   0.0104167
        k(  148) = (   0.1458333   0.2500000   0.0000000), wk =   0.0104167
        k(  149) = (   0.1458333   0.2708333   0.0000000), wk =   0.0104167
        k(  150) = (   0.1458333   0.2916667   0.0000000), wk =   0.0104167
        k(  151) = (   0.1458333   0.3125000   0.0000000), wk =   0.0104167
        k(  152) = (   0.1458333   0.3333333   0.0000000), wk =   0.0104167
        k(  153) = (   0.1458333   0.3541667   0.0000000), wk =   0.0104167
        k(  154) = (   0.1458333   0.3750000   0.0000000), wk =   0.0104167
        k(  155) = (   0.1458333   0.3958333   0.0000000), wk =   0.0104167
        k(  156) = (   0.1458333   0.4166667   0.0000000), wk =   0.0104167
        k(  157) = (   0.1666667   0.1666667   0.0000000), wk =   0.0052083
        k(  158) = (   0.1666667   0.1875000   0.0000000), wk =   0.0104167
        k(  159) = (   0.1666667   0.2083333   0.0000000), wk =   0.0104167
        k(  160) = (   0.1666667   0.2291667   0.0000000), wk =   0.0104167
        k(  161) = (   0.1666667   0.2500000   0.0000000), wk =   0.0104167
        k(  162) = (   0.1666667   0.2708333   0.0000000), wk =   0.0104167
        k(  163) = (   0.1666667   0.2916667   0.0000000), wk =   0.0104167
        k(  164) = (   0.1666667   0.3125000   0.0000000), wk =   0.0104167
        k(  165) = (   0.1666667   0.3333333   0.0000000), wk =   0.0104167
        k(  166) = (   0.1666667   0.3541667   0.0000000), wk =   0.0104167
        k(  167) = (   0.1666667   0.3750000   0.0000000), wk =   0.0104167
        k(  168) = (   0.1666667   0.3958333   0.0000000), wk =   0.0104167
        k(  169) = (   0.1666667   0.4166667   0.0000000), wk =   0.0052083
        k(  170) = (   0.1875000   0.1875000   0.0000000), wk =   0.0052083
        k(  171) = (   0.1875000   0.2083333   0.0000000), wk =   0.0104167
        k(  172) = (   0.1875000   0.2291667   0.0000000), wk =   0.0104167
        k(  173) = (   0.1875000   0.2500000   0.0000000), wk =   0.0104167
        k(  174) = (   0.1875000   0.2708333   0.0000000), wk =   0.0104167
        k(  175) = (   0.1875000   0.2916667   0.0000000), wk =   0.0104167
        k(  176) = (   0.1875000   0.3125000   0.0000000), wk =   0.0104167
        k(  177) = (   0.1875000   0.3333333   0.0000000), wk =   0.0104167
        k(  178) = (   0.1875000   0.3541667   0.0000000), wk =   0.0104167
        k(  179) = (   0.1875000   0.3750000   0.0000000), wk =   0.0104167
        k(  180) = (   0.1875000   0.3958333   0.0000000), wk =   0.0104167
        k(  181) = (   0.2083333   0.2083333   0.0000000), wk =   0.0052083
        k(  182) = (   0.2083333   0.2291667   0.0000000), wk =   0.0104167
        k(  183) = (   0.2083333   0.2500000   0.0000000), wk =   0.0104167
        k(  184) = (   0.2083333   0.2708333   0.0000000), wk =   0.0104167
        k(  185) = (   0.2083333   0.2916667   0.0000000), wk =   0.0104167
        k(  186) = (   0.2083333   0.3125000   0.0000000), wk =   0.0104167
        k(  187) = (   0.2083333   0.3333333   0.0000000), wk =   0.0104167
        k(  188) = (   0.2083333   0.3541667   0.0000000), wk =   0.0104167
        k(  189) = (   0.2083333   0.3750000   0.0000000), wk =   0.0104167
        k(  190) = (   0.2083333   0.3958333   0.0000000), wk =   0.0052083
        k(  191) = (   0.2291667   0.2291667   0.0000000), wk =   0.0052083
        k(  192) = (   0.2291667   0.2500000   0.0000000), wk =   0.0104167
        k(  193) = (   0.2291667   0.2708333   0.0000000), wk =   0.0104167
        k(  194) = (   0.2291667   0.2916667   0.0000000), wk =   0.0104167
        k(  195) = (   0.2291667   0.3125000   0.0000000), wk =   0.0104167
        k(  196) = (   0.2291667   0.3333333   0.0000000), wk =   0.0104167
        k(  197) = (   0.2291667   0.3541667   0.0000000), wk =   0.0104167
        k(  198) = (   0.2291667   0.3750000   0.0000000), wk =   0.0104167
        k(  199) = (   0.2500000   0.2500000   0.0000000), wk =   0.0052083
        k(  200) = (   0.2500000   0.2708333   0.0000000), wk =   0.0104167
        k(  201) = (   0.2500000   0.2916667   0.0000000), wk =   0.0104167
        k(  202) = (   0.2500000   0.3125000   0.0000000), wk =   0.0104167
        k(  203) = (   0.2500000   0.3333333   0.0000000), wk =   0.0104167
        k(  204) = (   0.2500000   0.3541667   0.0000000), wk =   0.0104167
        k(  205) = (   0.2500000   0.3750000   0.0000000), wk =   0.0052083
        k(  206) = (   0.2708333   0.2708333   0.0000000), wk =   0.0052083
        k(  207) = (   0.2708333   0.2916667   0.0000000), wk =   0.0104167
        k(  208) = (   0.2708333   0.3125000   0.0000000), wk =   0.0104167
        k(  209) = (   0.2708333   0.3333333   0.0000000), wk =   0.0104167
        k(  210) = (   0.2708333   0.3541667   0.0000000), wk =   0.0104167
        k(  211) = (   0.2916667   0.2916667   0.0000000), wk =   0.0052083
        k(  212) = (   0.2916667   0.3125000   0.0000000), wk =   0.0104167
        k(  213) = (   0.2916667   0.3333333   0.0000000), wk =   0.0104167
        k(  214) = (   0.2916667   0.3541667   0.0000000), wk =   0.0052083
        k(  215) = (   0.3125000   0.3125000   0.0000000), wk =   0.0052083
        k(  216) = (   0.3125000   0.3333333   0.0000000), wk =   0.0104167
        k(  217) = (   0.3333333   0.3333333   0.0000000), wk =   0.0017361

     Dense  grid:   260875 G-vectors     FFT dimensions: (  32,  32, 600)

     Dynamical RAM for                 wfc:       2.48 MB

     Dynamical RAM for     wfc (w. buffer):     541.67 MB

     Dynamical RAM for           str. fact:       1.99 MB

     Dynamical RAM for           local pot:       0.00 MB

     Dynamical RAM for          nlocal pot:       3.98 MB

     Dynamical RAM for                qrad:       0.36 MB

     Dynamical RAM for          rho,v,vnew:      13.00 MB

     Dynamical RAM for               rhoin:       4.33 MB

     Dynamical RAM for            rho*nmix:      31.85 MB

     Dynamical RAM for           G-vectors:       8.46 MB

     Dynamical RAM for          h,s,v(r/c):       0.07 MB

     Dynamical RAM for          <psi|beta>:       0.00 MB

     Dynamical RAM for                 psi:       9.94 MB

     Dynamical RAM for                hpsi:       9.94 MB

     Dynamical RAM for                spsi:       9.94 MB

     Dynamical RAM for      wfcinit/wfcrot:       4.97 MB

     Dynamical RAM for           addusdens:      89.58 MB

     Dynamical RAM for          addusforce:      94.56 MB

     Dynamical RAM for         addusstress:      99.53 MB

     Estimated static dynamical RAM per process >     621.35 MB

     Estimated max dynamical RAM per process >     720.88 MB

     Estimated total dynamical RAM >       1.41 GB

     Initial potential from superposition of free atoms

     starting charge    7.99992, renormalised to    8.00000

     negative rho (up, down):  9.722E-06 0.000E+00
     Starting wfcs are    8 randomized atomic wfcs +    2 random wfcs
     Checking if some PAW data can be deallocated... 

     total cpu time spent up to now is       45.8 secs

     Self-consistent Calculation

     iteration #  1     ecut=   110.00 Ry     beta= 0.30
     Davidson diagonalization with overlap
     ethr =  1.00E-02,  avg # of iterations = 10.3

     negative rho (up, down):  1.649E-05 0.000E+00

     total cpu time spent up to now is      279.6 secs

     total energy              =     -36.90614071 Ry
     Harris-Foulkes estimate   =     -36.97016855 Ry
     estimated scf accuracy    <       0.18795703 Ry

     iteration #  2     ecut=   110.00 Ry     beta= 0.30
     Davidson diagonalization with overlap
     ethr =  2.35E-03,  avg # of iterations =  1.6

     negative rho (up, down):  5.387E-05 0.000E+00

     total cpu time spent up to now is      392.5 secs

     total energy              =     -36.87523035 Ry
     Harris-Foulkes estimate   =     -36.91157094 Ry
     estimated scf accuracy    <       0.06315295 Ry

     iteration #  3     ecut=   110.00 Ry     beta= 0.30
     Davidson diagonalization with overlap
     ethr =  7.89E-04,  avg # of iterations =  9.9

     negative rho (up, down):  1.192E-04 0.000E+00

     total cpu time spent up to now is      597.6 secs

     total energy              =     -36.88613066 Ry
     Harris-Foulkes estimate   =     -36.88603094 Ry
     estimated scf accuracy    <       0.00133352 Ry

     iteration #  4     ecut=   110.00 Ry     beta= 0.30
     Davidson diagonalization with overlap
     c_bands:  1 eigenvalues not converged
     c_bands:  1 eigenvalues not converged
     c_bands:  1 eigenvalues not converged
     c_bands:  1 eigenvalues not converged
     c_bands:  2 eigenvalues not converged
     c_bands:  1 eigenvalues not converged
     c_bands:  1 eigenvalues not converged
     c_bands:  1 eigenvalues not converged
     c_bands:  1 eigenvalues not converged
     c_bands:  1 eigenvalues not converged
     c_bands:  1 eigenvalues not converged
     c_bands:  1 eigenvalues not converged
     c_bands:  1 eigenvalues not converged
     c_bands:  1 eigenvalues not converged
     c_bands:  1 eigenvalues not converged
     c_bands:  1 eigenvalues not converged
     c_bands:  1 eigenvalues not converged
     c_bands:  1 eigenvalues not converged
     c_bands:  1 eigenvalues not converged
     ethr =  1.67E-05,  avg # of iterations = 15.4

     negative rho (up, down):  9.943E-05 0.000E+00

     total cpu time spent up to now is      900.4 secs

     total energy              =     -36.88554674 Ry
     Harris-Foulkes estimate   =     -36.88695619 Ry
     estimated scf accuracy    <       0.00217416 Ry

     iteration #  5     ecut=   110.00 Ry     beta= 0.30
     Davidson diagonalization with overlap
     c_bands:  1 eigenvalues not converged
     ethr =  1.67E-05,  avg # of iterations =  3.8

     negative rho (up, down):  9.348E-05 0.000E+00

     total cpu time spent up to now is     1058.0 secs

     total energy              =     -36.88592173 Ry
     Harris-Foulkes estimate   =     -36.88592148 Ry
     estimated scf accuracy    <       0.00000148 Ry

     iteration #  6     ecut=   110.00 Ry     beta= 0.30
     Davidson diagonalization with overlap
     c_bands:  1 eigenvalues not converged
     c_bands:  1 eigenvalues not converged
     c_bands:  1 eigenvalues not converged
     c_bands:  1 eigenvalues not converged
     c_bands:  1 eigenvalues not converged
     c_bands:  1 eigenvalues not converged
     c_bands:  1 eigenvalues not converged
     c_bands:  1 eigenvalues not converged
     c_bands:  1 eigenvalues not converged
     c_bands:  1 eigenvalues not converged
     c_bands:  1 eigenvalues not converged
     ethr =  1.85E-08,  avg # of iterations =  7.1

     negative rho (up, down):  8.580E-05 0.000E+00

     total cpu time spent up to now is     1239.5 secs

     total energy              =     -36.88592363 Ry
     Harris-Foulkes estimate   =     -36.88592336 Ry
     estimated scf accuracy    <       0.00000047 Ry

     iteration #  7     ecut=   110.00 Ry     beta= 0.30
     Davidson diagonalization with overlap
     ethr =  5.88E-09,  avg # of iterations =  2.1

     negative rho (up, down):  8.780E-05 0.000E+00

     total cpu time spent up to now is     1360.4 secs

     total energy              =     -36.88592347 Ry
     Harris-Foulkes estimate   =     -36.88592368 Ry
     estimated scf accuracy    <       0.00000035 Ry

     iteration #  8     ecut=   110.00 Ry     beta= 0.30
     Davidson diagonalization with overlap
     ethr =  4.44E-09,  avg # of iterations =  2.0

     negative rho (up, down):  8.832E-05 0.000E+00

     total cpu time spent up to now is     1469.1 secs

     End of self-consistent calculation

          k = 0.0000 0.0000 0.0000 ( 32493 PWs)   bands (ev):

   -22.8268 -10.9534  -6.5554  -6.5554  -0.1798   0.4788   0.5795   0.6999
     0.7613   1.0309

     occupation numbers 
     1.0000   1.0000   1.0028   1.0028  -0.0019  -0.0002  -0.0001  -0.0001
    -0.0001  -0.0000

          k = 0.0000 0.0241 0.0000 ( 32539 PWs)   bands (ev):

   -22.8167 -10.9414  -6.5978  -6.5774  -0.1660   0.4927   0.5936   0.7139
     0.7754   1.0450

     occupation numbers 
     1.0000   1.0000   1.0024   1.0026  -0.0018  -0.0002  -0.0001  -0.0001
    -0.0001  -0.0000

          k = 0.0000 0.0481 0.0000 ( 32545 PWs)   bands (ev):

   -22.7864 -10.9053  -6.7232  -6.6423  -0.1249   0.5346   0.6358   0.7561
     0.8175   1.0870

     occupation numbers 
     1.0000   1.0000   1.0017   1.0021  -0.0016  -0.0001  -0.0001  -0.0001
    -0.0000  -0.0000

          k = 0.0000 0.0722 0.0000 ( 32523 PWs)   bands (ev):

   -22.7359 -10.8453  -6.9266  -6.7466  -0.0564   0.6044   0.7062   0.8263
     0.8878   1.1572

     occupation numbers 
     1.0000   1.0000   1.0009   1.0015  -0.0013  -0.0001  -0.0001  -0.0000
    -0.0000  -0.0000

          k = 0.0000 0.0962 0.0000 ( 32531 PWs)   bands (ev):

   -22.6652 -10.7613  -7.2007  -6.8853   0.0396   0.7022   0.8048   0.9245
     0.9863   1.2554

     occupation numbers 
     1.0000   1.0000   1.0003   1.0010  -0.0009  -0.0001  -0.0000  -0.0000
    -0.0000  -0.0000

          k = 0.0000 0.1203 0.0000 ( 32521 PWs)   bands (ev):

   -22.5745 -10.6536  -7.5364  -7.0522   0.1631   0.8279   0.9315   1.0509
     1.1129   1.3817

     occupation numbers 
     1.0000   1.0000   1.0001   1.0006  -0.0006  -0.0000  -0.0000  -0.0000
    -0.0000  -0.0000

          k = 0.0000 0.1443 0.0000 ( 32493 PWs)   bands (ev):

   -22.4637 -10.5223  -7.9245  -7.2409   0.3139   0.9813   1.0864   1.2053
     1.2676   1.5358

     occupation numbers 
     1.0000   1.0000   1.0000   1.0003  -0.0003  -0.0000  -0.0000  -0.0000
    -0.0000  -0.0000

          k = 0.0000 0.1684 0.0000 ( 32485 PWs)   bands (ev):

   -22.3330 -10.3678  -8.3558  -7.4452   0.4921   1.1626   1.2694   1.3878
     1.4504   1.7181

     occupation numbers 
     1.0000   1.0000   1.0000   1.0001  -0.0002  -0.0000  -0.0000  -0.0000
    -0.0000  -0.0000

          k = 0.0000 0.1925 0.0000 ( 32495 PWs)   bands (ev):

   -22.1824 -10.1902  -8.8219  -7.6591   0.6977   1.3716   1.4806   1.5982
     1.6614   1.9282

     occupation numbers 
     1.0000   1.0000   1.0000   1.0001  -0.0001  -0.0000  -0.0000  -0.0000
    -0.0000  -0.0000

          k = 0.0000 0.2165 0.0000 ( 32489 PWs)   bands (ev):

   -22.0121  -9.9900  -9.3150  -7.8777   0.9306   1.6083   1.7200   1.8367
     1.9005   2.1665

     occupation numbers 
     1.0000   1.0000   1.0000   1.0000  -0.0000  -0.0000  -0.0000  -0.0000
    -0.0000  -0.0000

          k = 0.0000 0.2406 0.0000 ( 32475 PWs)   bands (ev):

   -21.8221  -9.8286  -9.7676  -8.0964   1.1907   1.8722   1.9875   2.1031
     2.1678   2.4322

     occupation numbers 
     1.0000   1.0000   1.0000   1.0000  -0.0000  -0.0000  -0.0000  -0.0000
    -0.0000  -0.0000

          k = 0.0000 0.2646 0.0000 ( 32466 PWs)   bands (ev):

   -21.6127 -10.3570  -9.5238  -8.3115   1.4779   2.1628   2.2832   2.3971
     2.4631   2.7253

     occupation numbers 
     1.0000   1.0000   1.0000   1.0000  -0.0000  -0.0000  -0.0000  -0.0000
    -0.0000  -0.0000

          k = 0.0000 0.2887 0.0000 ( 32510 PWs)   bands (ev):

   -21.3841 -10.8951  -9.2592  -8.5197   1.7922   2.4772   2.6070   2.7177
     2.7865   3.0424

     occupation numbers 
     1.0000   1.0000   1.0000   1.0000  -0.0000  -0.0000  -0.0000  -0.0000
    -0.0000  -0.0000

          k = 0.0000 0.3127 0.0000 ( 32526 PWs)   bands (ev):

   -21.1365 -11.4388  -8.9748  -8.7185   2.1332   2.7720   2.9590   3.0169
     3.1288   3.1381

     occupation numbers 
     1.0000   1.0000   1.0000   1.0000  -0.0000  -0.0000  -0.0000  -0.0000
    -0.0000  -0.0000

          k = 0.0000 0.3368 0.0000 ( 32562 PWs)   bands (ev):

   -20.8702 -11.9843  -8.9056  -8.6720   2.4316   2.5006   3.2344   3.3392
     3.4567   3.5176

     occupation numbers 
     1.0000   1.0000   1.0000   1.0000  -0.0000  -0.0000  -0.0000  -0.0000
    -0.0000  -0.0000

          k = 0.0000 0.3608 0.0000 ( 32580 PWs)   bands (ev):

   -20.5855 -12.5286  -9.0792  -8.3524   1.8801   2.8934   3.6273   3.7472
     3.8613   3.9222

     occupation numbers 
     1.0000   1.0000   1.0000   1.0000  -0.0000  -0.0000  -0.0000  -0.0000
    -0.0000  -0.0000

          k = 0.0000 0.3849 0.0000 ( 32578 PWs)   bands (ev):

   -20.2829 -13.0687  -9.2379  -8.0183   1.3209   3.3085   4.0055   4.0546
     4.1849   4.2954

     occupation numbers 
     1.0000   1.0000   1.0000   1.0000  -0.0000  -0.0000  -0.0000  -0.0000
    -0.0000  -0.0000

          k = 0.0000 0.4090 0.0000 ( 32580 PWs)   bands (ev):

   -19.9631 -13.6022  -9.3803  -7.6731   0.7682   3.7156   3.9765   4.5105
     4.6488   4.7580

     occupation numbers 
     1.0000   1.0000   1.0000   1.0000  -0.0001  -0.0000  -0.0000  -0.0000
    -0.0000  -0.0000

          k = 0.0000 0.4330 0.0000 ( 32536 PWs)   bands (ev):

   -19.6269 -14.1264  -9.5056  -7.3212   0.2307   3.8237   4.2784   4.9939
     5.1416   5.2484

     occupation numbers 
     1.0000   1.0000   1.0000   1.0002  -0.0005  -0.0000  -0.0000  -0.0000
    -0.0000  -0.0000

          k = 0.0000 0.4571 0.0000 ( 32540 PWs)   bands (ev):

   -19.2758 -14.6387  -9.6127  -6.9697  -0.2820   3.7824   4.7636   5.5039
     5.6625   5.7670

     occupation numbers 
     1.0000   1.0000   1.0000   1.0007  -0.0025  -0.0000  -0.0000  -0.0000
    -0.0000  -0.0000

          k = 0.0000 0.4811 0.0000 ( 32546 PWs)   bands (ev):

   -18.9122 -15.1355  -9.7013  -6.6290  -0.7573   3.7391   5.2854   6.0397
     6.2117   6.3134

     occupation numbers 
     1.0000   1.0000   1.0000   1.0022  -0.0089  -0.0000  -0.0000  -0.0000
    -0.0000  -0.0000

          k = 0.0000 0.5052 0.0000 ( 32570 PWs)   bands (ev):

   -18.5411 -15.6110  -9.7706  -6.3151  -1.1774   3.7033   5.8343   6.6007
     6.7889   6.8877

     occupation numbers 
     1.0000   1.0000   1.0000   1.0054  -0.0204  -0.0000  -0.0000  -0.0000
    -0.0000  -0.0000

          k = 0.0000 0.5292 0.0000 ( 32622 PWs)   bands (ev):

   -18.1748 -16.0523  -9.8204  -6.0521  -1.5172   3.6770   6.4076   7.1850
     7.3942   7.4896

     occupation numbers 
     1.0000   1.0000   1.0000   1.0101  -0.0314  -0.0000  -0.0000  -0.0000
    -0.0000  -0.0000

          k = 0.0000 0.5533 0.0000 ( 32634 PWs)   bands (ev):

   -17.8515 -16.4208  -9.8504  -5.8720  -1.7436   3.6610   7.0026   7.7893
     8.0278   8.1986

     occupation numbers 
     1.0000   1.0000   1.0000   1.0147  -0.0354  -0.0000  -0.0000  -0.0000
    -0.0000  -0.0000

          k = 0.0000-0.5774 0.0000 ( 32666 PWs)   bands (ev):

   -17.6973 -16.5901  -9.8604  -5.8072  -1.8239   3.6556   7.5492   7.7018
     8.3321   8.5000

     occupation numbers 
     1.0000   1.0000   1.0000   1.0167  -0.0352  -0.0000  -0.0000  -0.0000
    -0.0000  -0.0000

          k = 0.0208 0.0361 0.0000 ( 32547 PWs)   bands (ev):

   -22.7965 -10.9174  -6.6811  -6.6215  -0.1387   0.5207   0.6217   0.7420
     0.8034   1.0731

     occupation numbers 
     1.0000   1.0000   1.0019   1.0023  -0.0016  -0.0002  -0.0001  -0.0001
    -0.0000  -0.0000

          k = 0.0208 0.0601 0.0000 ( 32533 PWs)   bands (ev):

   -22.7561 -10.8693  -6.8438  -6.7078  -0.0838   0.5765   0.6781   0.7982
     0.8598   1.1292

     occupation numbers 
     1.0000   1.0000   1.0011   1.0017  -0.0014  -0.0001  -0.0001  -0.0000
    -0.0000  -0.0000

          k = 0.0208 0.0842 0.0000 ( 32531 PWs)   bands (ev):

   -22.6955 -10.7973  -7.0803  -6.8315  -0.0015   0.6603   0.7625   0.8824
     0.9441   1.2133

     occupation numbers 
     1.0000   1.0000   1.0005   1.0012  -0.0010  -0.0001  -0.0001  -0.0000
    -0.0000  -0.0000

          k = 0.0208 0.1083 0.0000 ( 32507 PWs)   bands (ev):

   -22.6148 -10.7014  -7.3827  -6.9869   0.1082   0.7720   0.8752   0.9947
     1.0567   1.3256

     occupation numbers 
     1.0000   1.0000   1.0002   1.0007  -0.0007  -0.0001  -0.0000  -0.0000
    -0.0000  -0.0000

          k = 0.0208 0.1323 0.0000 ( 32511 PWs)   bands (ev):

   -22.5141 -10.5820  -7.7420  -7.1674   0.2453   0.9116   1.0160   1.1351
     1.1973   1.4662

     occupation numbers 
     1.0000   1.0000   1.0000   1.0004  -0.0004  -0.0000  -0.0000  -0.0000
    -0.0000  -0.0000

          k = 0.0208 0.1564 0.0000 ( 32485 PWs)   bands (ev):

   -22.3933 -10.4390  -8.1493  -7.3664   0.4099   1.0789   1.1850   1.3035
     1.3660   1.6339

     occupation numbers 
     1.0000   1.0000   1.0000   1.0002  -0.0002  -0.0000  -0.0000  -0.0000
    -0.0000  -0.0000

          k = 0.0208 0.1804 0.0000 ( 32484 PWs)   bands (ev):

   -22.2527 -10.2729  -8.5957  -7.5778   0.6018   1.2741   1.3821   1.5000
     1.5630   1.8302

     occupation numbers 
     1.0000   1.0000   1.0000   1.0001  -0.0001  -0.0000  -0.0000  -0.0000
    -0.0000  -0.0000

          k = 0.0208 0.2045 0.0000 ( 32493 PWs)   bands (ev):

   -22.0922 -10.0840  -9.0733  -7.7961   0.8211   1.4970   1.6073   1.7245
     1.7880   2.0544

     occupation numbers 
     1.0000   1.0000   1.0000   1.0000  -0.0000  -0.0000  -0.0000  -0.0000
    -0.0000  -0.0000

          k = 0.0208 0.2285 0.0000 ( 32467 PWs)   bands (ev):

   -21.9120  -9.8727  -9.5750  -8.0165   1.0676   1.7473   1.8608   1.9770
     2.0412   2.3064

     occupation numbers 
     1.0000   1.0000   1.0000   1.0000  -0.0000  -0.0000  -0.0000  -0.0000
    -0.0000  -0.0000

          k = 0.0208 0.2526 0.0000 ( 32475 PWs)   bands (ev):

   -21.7124 -10.0946  -9.6396  -8.2349   1.3413   2.0247   2.1424   2.2572
     2.3225   2.5860

     occupation numbers 
     1.0000   1.0000   1.0000   1.0000  -0.0000  -0.0000  -0.0000  -0.0000
    -0.0000  -0.0000

          k = 0.0208 0.2766 0.0000 ( 32480 PWs)   bands (ev):

   -21.4934 -10.6267  -9.3853  -8.4478   1.6420   2.3279   2.4523   2.5648
     2.6322   2.8921

     occupation numbers 
     1.0000   1.0000   1.0000   1.0000  -0.0000  -0.0000  -0.0000  -0.0000
    -0.0000  -0.0000

          k = 0.0208 0.3007 0.0000 ( 32513 PWs)   bands (ev):

   -21.2552 -11.1666  -9.1107  -8.6523   1.9697   2.6482   2.7901   2.8956
     2.9693   3.1955

     occupation numbers 
     1.0000   1.0000   1.0000   1.0000  -0.0000  -0.0000  -0.0000  -0.0000
    -0.0000  -0.0000

          k = 0.0208 0.3248 0.0000 ( 32539 PWs)   bands (ev):

   -20.9983 -11.7104  -8.8461  -8.8170   2.3240   2.6775   3.0739   3.1561
     3.2778   3.3348

     occupation numbers 
     1.0000   1.0000   1.0000   1.0000  -0.0000  -0.0000  -0.0000  -0.0000
    -0.0000  -0.0000

          k = 0.0208 0.3488 0.0000 ( 32572 PWs)   bands (ev):

   -20.7227 -12.2547  -9.0271  -8.5056   2.1513   2.7044   3.4352   3.5503
     3.6657   3.7279

     occupation numbers 
     1.0000   1.0000   1.0000   1.0000  -0.0000  -0.0000  -0.0000  -0.0000
    -0.0000  -0.0000

          k = 0.0208 0.3729 0.0000 ( 32574 PWs)   bands (ev):

   -20.4291 -12.7963  -9.1938  -8.1785   1.5940   3.1094   3.8471   3.9719
     4.0787   4.0851

     occupation numbers 
     1.0000   1.0000   1.0000   1.0000  -0.0000  -0.0000  -0.0000  -0.0000
    -0.0000  -0.0000

          k = 0.0208 0.3969 0.0000 ( 32582 PWs)   bands (ev):

   -20.1178 -13.3327  -9.3448  -7.8384   1.0379   3.5320   4.0237   4.2889
     4.4237   4.5337

     occupation numbers 
     1.0000   1.0000   1.0000   1.0000  -0.0000  -0.0000  -0.0000  -0.0000
    -0.0000  -0.0000

          k = 0.0208 0.4210 0.0000 ( 32577 PWs)   bands (ev):

   -19.7898 -13.8613  -9.4789  -7.4891   0.4926   3.8569   4.0925   4.7586
     4.9023   5.0101

     occupation numbers 
     1.0000   1.0000   1.0000   1.0001  -0.0002  -0.0000  -0.0000  -0.0000
    -0.0000  -0.0000

          k = 0.0208 0.4450 0.0000 ( 32557 PWs)   bands (ev):

   -19.4460 -14.3794  -9.5954  -7.1364  -0.0331   3.8505   4.5257   5.2552
     5.4091   5.5146

     occupation numbers 
     1.0000   1.0000   1.0000   1.0004  -0.0012  -0.0000  -0.0000  -0.0000
    -0.0000  -0.0000

          k = 0.0208 0.4691 0.0000 ( 32565 PWs)   bands (ev):

   -19.0883 -14.8841  -9.6935  -6.7886  -0.5283   3.8063   5.0311   5.7781
     5.9443   6.0470

     occupation numbers 
     1.0000   1.0000   1.0000   1.0013  -0.0050  -0.0000  -0.0000  -0.0000
    -0.0000  -0.0000

          k = 0.0208 0.4932 0.0000 ( 32563 PWs)   bands (ev):

   -18.7201 -15.3708  -9.7726  -6.4587  -0.9782   3.7665   5.5666   6.3262
     6.5072   6.6080

     occupation numbers 
     1.0000   1.0000   1.0000   1.0036  -0.0142  -0.0000  -0.0000  -0.0000
    -0.0000  -0.0000

          k = 0.0208 0.5172 0.0000 ( 32603 PWs)   bands (ev):

   -18.3492 -15.8314  -9.8322  -6.1665  -1.3616   3.7353   6.1278   6.8986
     7.0985   7.1954

     occupation numbers 
     1.0000   1.0000   1.0000   1.0078  -0.0266  -0.0000  -0.0000  -0.0000
    -0.0000  -0.0000

          k = 0.0208 0.5413 0.0000 ( 32621 PWs)   bands (ev):

   -17.9964 -16.2442  -9.8722  -5.9405  -1.6491   3.7141   6.7123   7.4929
     7.7180   7.8110

     occupation numbers 
     1.0000   1.0000   1.0000   1.0129  -0.0344  -0.0000  -0.0000  -0.0000
    -0.0000  -0.0000

          k = 0.0208 0.5653 0.0000 ( 32628 PWs)   bands (ev):

   -17.7334 -16.5373  -9.8922  -5.8145  -1.8059   3.7034   7.3140   7.9596
     8.0997   8.3657

     occupation numbers 
     1.0000   1.0000   1.0000   1.0164  -0.0353  -0.0000  -0.0000  -0.0000
    -0.0000  -0.0000

          k = 0.0417 0.0722 0.0000 ( 32521 PWs)   bands (ev):

   -22.7056 -10.8093  -7.0368  -6.8163  -0.0152   0.6464   0.7485   0.8684
     0.9300   1.1993

     occupation numbers 
     1.0000   1.0000   1.0006   1.0012  -0.0011  -0.0001  -0.0001  -0.0000
    -0.0000  -0.0000

          k = 0.0417 0.0962 0.0000 ( 32517 PWs)   bands (ev):

   -22.6350 -10.7254  -7.2969  -6.9616   0.0808   0.7441   0.8470   0.9666
     1.0285   1.2974

     occupation numbers 
     1.0000   1.0000   1.0002   1.0008  -0.0008  -0.0001  -0.0000  -0.0000
    -0.0000  -0.0000

          k = 0.0417 0.1203 0.0000 ( 32501 PWs)   bands (ev):

   -22.5443 -10.6178  -7.6172  -7.1363   0.2042   0.8697   0.9737   1.0930
     1.1551   1.4237

     occupation numbers 
     1.0000   1.0000   1.0001   1.0004  -0.0005  -0.0000  -0.0000  -0.0000
    -0.0000  -0.0000

          k = 0.0417 0.1443 0.0000 ( 32491 PWs)   bands (ev):

   -22.4335 -10.4866  -7.9899  -7.3329   0.3551   1.0232   1.1287   1.2474
     1.3099   1.5781

     occupation numbers 
     1.0000   1.0000   1.0000   1.0002  -0.0003  -0.0000  -0.0000  -0.0000
    -0.0000  -0.0000

          k = 0.0417 0.1684 0.0000 ( 32490 PWs)   bands (ev):

   -22.3029 -10.3321  -8.4070  -7.5445   0.5333   1.2045   1.3117   1.4299
     1.4927   1.7602

     occupation numbers 
     1.0000   1.0000   1.0000   1.0001  -0.0001  -0.0000  -0.0000  -0.0000
    -0.0000  -0.0000

          k = 0.0417 0.1925 0.0000 ( 32482 PWs)   bands (ev):

   -22.1523 -10.1547  -8.8603  -7.7651   0.7389   1.4135   1.5229   1.6403
     1.7036   1.9704

     occupation numbers 
     1.0000   1.0000   1.0000   1.0000  -0.0001  -0.0000  -0.0000  -0.0000
    -0.0000  -0.0000

          k = 0.0417 0.2165 0.0000 ( 32471 PWs)   bands (ev):

   -21.9821  -9.9546  -9.3425  -7.9894   0.9718   1.6501   1.7627   1.8789
     1.9432   2.2086

     occupation numbers 
     1.0000   1.0000   1.0000   1.0000  -0.0000  -0.0000  -0.0000  -0.0000
    -0.0000  -0.0000

          k = 0.0417 0.2406 0.0000 ( 32461 PWs)   bands (ev):

   -21.7922  -9.8467  -9.7325  -8.2130   1.2319   1.9141   2.0298   2.1453
     2.2100   2.4743

     occupation numbers 
     1.0000   1.0000   1.0000   1.0000  -0.0000  -0.0000  -0.0000  -0.0000
    -0.0000  -0.0000

          k = 0.0417 0.2646 0.0000 ( 32485 PWs)   bands (ev):

   -21.5829 -10.3672  -9.4888  -8.4321   1.5193   2.2047   2.3254   2.4393
     2.5053   2.7674

     occupation numbers 
     1.0000   1.0000   1.0000   1.0000  -0.0000  -0.0000  -0.0000  -0.0000
    -0.0000  -0.0000

          k = 0.0417 0.2887 0.0000 ( 32497 PWs)   bands (ev):

   -21.3544 -10.8988  -9.2244  -8.6437   1.8335   2.5189   2.6493   2.7598
     2.8288   3.0839

     occupation numbers 
     1.0000   1.0000   1.0000   1.0000  -0.0000  -0.0000  -0.0000  -0.0000
    -0.0000  -0.0000

          k = 0.0417 0.3127 0.0000 ( 32537 PWs)   bands (ev):

   -21.1069 -11.4369  -8.9403  -8.8452   2.1746   2.7986   3.0013   3.0231
     3.1435   3.1803

     occupation numbers 
     1.0000   1.0000   1.0000   1.0000  -0.0000  -0.0000  -0.0000  -0.0000
    -0.0000  -0.0000

          k = 0.0417 0.3368 0.0000 ( 32535 PWs)   bands (ev):

   -20.8407 -11.9779  -9.0345  -8.6376   2.4022   2.5423   3.2715   3.3814
     3.4976   3.5599

     occupation numbers 
     1.0000   1.0000   1.0000   1.0000  -0.0000  -0.0000  -0.0000  -0.0000
    -0.0000  -0.0000

          k = 0.0417 0.3608 0.0000 ( 32556 PWs)   bands (ev):

   -20.5562 -12.5184  -9.2099  -8.3182   1.8526   2.9356   3.6664   3.7896
     3.9026   3.9663

     occupation numbers 
     1.0000   1.0000   1.0000   1.0000  -0.0000  -0.0000  -0.0000  -0.0000
    -0.0000  -0.0000

          k = 0.0417 0.3849 0.0000 ( 32559 PWs)   bands (ev):

   -20.2538 -13.0554  -9.3699  -7.9843   1.2974   3.3527   4.0940   4.1819
     4.2288   4.3369

     occupation numbers 
     1.0000   1.0000   1.0000   1.0000  -0.0000  -0.0000  -0.0000  -0.0000
    -0.0000  -0.0000

          k = 0.0417 0.4090 0.0000 ( 32573 PWs)   bands (ev):

   -19.9342 -13.5862  -9.5134  -7.6392   0.7485   3.7797   4.1364   4.5498
     4.6913   4.7993

     occupation numbers 
     1.0000   1.0000   1.0000   1.0001  -0.0001  -0.0000  -0.0000  -0.0000
    -0.0000  -0.0000

          k = 0.0417 0.4330 0.0000 ( 32588 PWs)   bands (ev):

   -19.5983 -14.1082  -9.6395  -7.2873   0.2144   3.9964   4.3299   5.0326
     5.1838   5.2903

     occupation numbers 
     1.0000   1.0000   1.0000   1.0002  -0.0005  -0.0000  -0.0000  -0.0000
    -0.0000  -0.0000

          k = 0.0417 0.4571 0.0000 ( 32584 PWs)   bands (ev):

   -19.2475 -14.6187  -9.7473  -6.9357  -0.2955   3.9648   4.8054   5.5419
     5.7048   5.8083

     occupation numbers 
     1.0000   1.0000   1.0000   1.0008  -0.0026  -0.0000  -0.0000  -0.0000
    -0.0000  -0.0000

          k = 0.0417 0.4811 0.0000 ( 32573 PWs)   bands (ev):

   -18.8843 -15.1139  -9.8363  -6.5946  -0.7687   3.9227   5.3258   6.0767
     6.2539   6.3546

     occupation numbers 
     1.0000   1.0000   1.0000   1.0025  -0.0091  -0.0000  -0.0000  -0.0000
    -0.0000  -0.0000

          k = 0.0417 0.5052 0.0000 ( 32590 PWs)   bands (ev):

   -18.5136 -15.5881  -9.9060  -6.2802  -1.1875   3.8871   5.8739   6.6361
     6.8310   6.9287

     occupation numbers 
     1.0000   1.0000   1.0000   1.0059  -0.0207  -0.0000  -0.0000  -0.0000
    -0.0000  -0.0000

          k = 0.0417 0.5292 0.0000 ( 32617 PWs)   bands (ev):

   -18.1478 -16.0283  -9.9560  -6.0164  -1.5267   3.8609   6.4465   7.2179
     7.4364   7.5303

     occupation numbers 
     1.0000   1.0000   1.0000   1.0110  -0.0317  -0.0000  -0.0000  -0.0000
    -0.0000  -0.0000

          k = 0.0417 0.5533 0.0000 ( 32611 PWs)   bands (ev):

   -17.8250 -16.3960  -9.9861  -5.8356  -1.7531   3.8449   7.0404   7.8173
     8.0698   8.1594

     occupation numbers 
     1.0000   1.0000   1.0000   1.0158  -0.0354  -0.0000  -0.0000  -0.0000
    -0.0000  -0.0000

          k = 0.0417 0.5774 0.0000 ( 32604 PWs)   bands (ev):

   -17.6711 -16.5648  -9.9962  -5.7705  -1.8335   3.8396   7.5847   7.7397
     8.3387   8.5420

     occupation numbers 
     1.0000   1.0000   1.0000   1.0178  -0.0351  -0.0000  -0.0000  -0.0000
    -0.0000  -0.0000

          k = 0.0625 0.1083 0.0000 ( 32509 PWs)   bands (ev):

   -22.5544 -10.6297  -7.5714  -7.1297   0.1905   0.8557   0.9597   1.0790
     1.1410   1.4096

     occupation numbers 
     1.0000   1.0000   1.0001   1.0004  -0.0005  -0.0000  -0.0000  -0.0000
    -0.0000  -0.0000

          k = 0.0625 0.1323 0.0000 ( 32505 PWs)   bands (ev):

   -22.4537 -10.5104  -7.8993  -7.3264   0.3276   0.9953   1.1005   1.2193
     1.2816   1.5498

     occupation numbers 
     1.0000   1.0000   1.0000   1.0002  -0.0003  -0.0000  -0.0000  -0.0000
    -0.0000  -0.0000

          k = 0.0625 0.1564 0.0000 ( 32496 PWs)   bands (ev):

   -22.3330 -10.3677  -8.2753  -7.5423   0.4922   1.1626   1.2694   1.3878
     1.4504   1.7180

     occupation numbers 
     1.0000   1.0000   1.0000   1.0001  -0.0002  -0.0000  -0.0000  -0.0000
    -0.0000  -0.0000

          k = 0.0625 0.1804 0.0000 ( 32482 PWs)   bands (ev):

   -22.1925 -10.2019  -8.6928  -7.7697   0.6842   1.3578   1.4666   1.5842
     1.6474   1.9143

     occupation numbers 
     1.0000   1.0000   1.0000   1.0000  -0.0001  -0.0000  -0.0000  -0.0000
    -0.0000  -0.0000

          k = 0.0625 0.2045 0.0000 ( 32472 PWs)   bands (ev):

   -22.0321 -10.0133  -9.1450  -8.0021   0.9034   1.5806   1.6918   1.8087
     1.8724   2.1384

     occupation numbers 
     1.0000   1.0000   1.0000   1.0000  -0.0000  -0.0000  -0.0000  -0.0000
    -0.0000  -0.0000

          k = 0.0625 0.2285 0.0000 ( 32455 PWs)   bands (ev):

   -21.8521  -9.8023  -9.6249  -8.2346   1.1500   1.8309   1.9453   2.0612
     2.1257   2.3905

     occupation numbers 
     1.0000   1.0000   1.0000   1.0000  -0.0000  -0.0000  -0.0000  -0.0000
    -0.0000  -0.0000

          k = 0.0625 0.2526 0.0000 ( 32493 PWs)   bands (ev):

   -21.6526 -10.1261  -9.5696  -8.4630   1.4238   2.1084   2.2269   2.3415
     2.4070   2.6704

     occupation numbers 
     1.0000   1.0000   1.0000   1.0000  -0.0000  -0.0000  -0.0000  -0.0000
    -0.0000  -0.0000

          k = 0.0625 0.2766 0.0000 ( 32499 PWs)   bands (ev):

   -21.4338 -10.6428  -9.3157  -8.6841   1.7247   2.4117   2.5367   2.6491
     2.7166   2.9762

     occupation numbers 
     1.0000   1.0000   1.0000   1.0000  -0.0000  -0.0000  -0.0000  -0.0000
    -0.0000  -0.0000

          k = 0.0625 0.3007 0.0000 ( 32515 PWs)   bands (ev):

   -21.1960 -11.1701  -9.0415  -8.8953   2.0525   2.7297   2.8746   2.9772
     3.0540   3.2048

     occupation numbers 
     1.0000   1.0000   1.0000   1.0000  -0.0000  -0.0000  -0.0000  -0.0000
    -0.0000  -0.0000

          k = 0.0625 0.3248 0.0000 ( 32533 PWs)   bands (ev):

   -20.9392 -11.7034  -9.0944  -8.7482   2.4070   2.6249   3.1380   3.2406
     3.3578   3.4194

     occupation numbers 
     1.0000   1.0000   1.0000   1.0000  -0.0000  -0.0000  -0.0000  -0.0000
    -0.0000  -0.0000

          k = 0.0625 0.3488 0.0000 ( 32541 PWs)   bands (ev):

   -20.6640 -12.2390  -9.2797  -8.4372   2.0911   2.7879   3.5127   3.6349
     3.7480   3.8132

     occupation numbers 
     1.0000   1.0000   1.0000   1.0000  -0.0000  -0.0000  -0.0000  -0.0000
    -0.0000  -0.0000

          k = 0.0625 0.3729 0.0000 ( 32559 PWs)   bands (ev):

   -20.3708 -12.7735  -9.4497  -8.1104   1.5414   3.1943   3.9257   4.0571
     4.1682   4.2328

     occupation numbers 
     1.0000   1.0000   1.0000   1.0000  -0.0000  -0.0000  -0.0000  -0.0000
    -0.0000  -0.0000

          k = 0.0625 0.3969 0.0000 ( 32582 PWs)   bands (ev):

   -20.0600 -13.3039  -9.6033  -7.7706   0.9934   3.6237   4.3675   4.3715
     4.5086   4.6165

     occupation numbers 
     1.0000   1.0000   1.0000   1.0000  -0.0000  -0.0000  -0.0000  -0.0000
    -0.0000  -0.0000

          k = 0.0625 0.4210 0.0000 ( 32590 PWs)   bands (ev):

   -19.7324 -13.8275  -9.7395  -7.4215   0.4555   4.0539   4.3370   4.8364
     4.9867   5.0931

     occupation numbers 
     1.0000   1.0000   1.0000   1.0001  -0.0002  -0.0000  -0.0000  -0.0000
    -0.0000  -0.0000

          k = 0.0625 0.4450 0.0000 ( 32590 PWs)   bands (ev):

   -19.3892 -14.3415  -9.8576  -7.0686  -0.0639   4.2013   4.6168   5.3318
     5.4936   5.5973

     occupation numbers 
     1.0000   1.0000   1.0000   1.0005  -0.0013  -0.0000  -0.0000  -0.0000
    -0.0000  -0.0000

          k = 0.0625 0.4691 0.0000 ( 32594 PWs)   bands (ev):

   -19.0322 -14.8427  -9.9568  -6.7204  -0.5541   4.1657   5.1131   5.8528
     6.0287   6.1296

     occupation numbers 
     1.0000   1.0000   1.0000   1.0017  -0.0054  -0.0000  -0.0000  -0.0000
    -0.0000  -0.0000

          k = 0.0625 0.4932 0.0000 ( 32601 PWs)   bands (ev):

   -18.6648 -15.3266 -10.0368  -6.3896  -1.0006   4.1273   5.6466   6.3983
     6.5917   6.6907

     occupation numbers 
     1.0000   1.0000   1.0000   1.0044  -0.0149  -0.0000  -0.0000  -0.0000
    -0.0000  -0.0000

          k = 0.0625 0.5172 0.0000 ( 32601 PWs)   bands (ev):

[...]
    -0.0000  -0.0000

          k = 0.1875 0.4932 0.0000 ( 32616 PWs)   bands (ev):

   -18.1711 -14.9752 -11.8694  -5.7846  -1.3152   6.3297   6.8159   6.9380
     7.3519   7.4248

     occupation numbers 
     1.0000   1.0000   1.0000   1.0174  -0.0250  -0.0000  -0.0000  -0.0000
    -0.0000  -0.0000

          k = 0.1875 0.5172 0.0000 ( 32667 PWs)   bands (ev):

   -17.8092 -15.4036 -11.9434  -5.4755  -1.6794   6.7177   6.9436   7.3615
     7.9431   8.0045

     occupation numbers 
     1.0000   1.0000   1.0000   1.0276  -0.0349  -0.0000  -0.0000  -0.0000
    -0.0000  -0.0000

          k = 0.1875 0.5413 0.0000 ( 32657 PWs)   bands (ev):

   -17.4657 -15.7924 -11.9922  -5.2279  -1.9641   6.7289   7.4734   7.6836
     8.5623   8.6054

     occupation numbers 
     1.0000   1.0000   1.0000   1.0343  -0.0316  -0.0000  -0.0000  -0.0000
    -0.0000  -0.0000

          k = 0.1875 0.5653 0.0000 ( 32688 PWs)   bands (ev):

   -17.2097 -16.0714 -12.0165  -5.0852  -2.1256   6.7211   7.8515   8.0339
     8.6493   9.2071

     occupation numbers 
     1.0000   1.0000   1.0000   1.0354  -0.0207  -0.0000  -0.0000  -0.0000
    -0.0000  -0.0000

          k = 0.2083 0.3608 0.0000 ( 32568 PWs)   bands (ev):

   -19.8584 -12.6849 -11.1340  -7.5221   0.9461   3.9195   4.6262   4.8035
     4.9041   4.9807

     occupation numbers 
     1.0000   1.0000   1.0000   1.0001  -0.0000  -0.0000  -0.0000  -0.0000
    -0.0000  -0.0000

          k = 0.2083 0.3849 0.0000 ( 32598 PWs)   bands (ev):

   -19.5612 -13.0438 -11.4275  -7.1942   0.5053   4.3388   5.0422   5.2400
     5.3369   5.4165

     occupation numbers 
     1.0000   1.0000   1.0000   1.0003  -0.0002  -0.0000  -0.0000  -0.0000
    -0.0000  -0.0000

          k = 0.2083 0.4090 0.0000 ( 32608 PWs)   bands (ev):

   -19.2477 -13.4308 -11.6764  -6.8537   0.0620   4.7834   5.4784   5.7046
     5.7970   5.8804

     occupation numbers 
     1.0000   1.0000   1.0000   1.0011  -0.0008  -0.0000  -0.0000  -0.0000
    -0.0000  -0.0000

          k = 0.2083 0.4330 0.0000 ( 32612 PWs)   bands (ev):

   -18.9188 -13.8404 -11.8813  -6.5039  -0.3794   5.2526   5.9294   6.1973
     6.2843   6.3723

     occupation numbers 
     1.0000   1.0000   1.0000   1.0032  -0.0033  -0.0000  -0.0000  -0.0000
    -0.0000  -0.0000

          k = 0.2083 0.4571 0.0000 ( 32625 PWs)   bands (ev):

   -18.5761 -14.2643 -12.0464  -6.1502  -0.8128   5.7451   6.3852   6.7181
     6.7984   6.8919

     occupation numbers 
     1.0000   1.0000   1.0000   1.0081  -0.0101  -0.0000  -0.0000  -0.0000
    -0.0000  -0.0000

          k = 0.2083 0.4811 0.0000 ( 32637 PWs)   bands (ev):

   -18.2222 -14.6930 -12.1758  -5.8008  -1.2290   6.2588   6.8254   7.2666
     7.3384   7.3847

     occupation numbers 
     1.0000   1.0000   1.0000   1.0169  -0.0221  -0.0000  -0.0000  -0.0000
    -0.0000  -0.0000

          k = 0.2083 0.5052 0.0000 ( 32663 PWs)   bands (ev):

   -17.8620 -15.1164 -12.2732  -5.4694  -1.6133   6.7873   7.2120   7.3604
     7.8447   7.9035

     occupation numbers 
     1.0000   1.0000   1.0000   1.0278  -0.0338  -0.0000  -0.0000  -0.0000
    -0.0000  -0.0000

          k = 0.2083 0.5292 0.0000 ( 32681 PWs)   bands (ev):

   -17.5073 -15.5188 -12.3413  -5.1799  -1.9412   7.2386   7.4315   7.4951
     8.4497   8.4914

     occupation numbers 
     1.0000   1.0000   1.0000   1.0350  -0.0325  -0.0000  -0.0000  -0.0000
    -0.0000  -0.0000

          k = 0.2083 0.5533 0.0000 ( 32675 PWs)   bands (ev):

   -17.1943 -15.8614 -12.3815  -4.9715  -2.1730   7.2808   7.6515   7.9294
     9.0518   9.0870

     occupation numbers 
     1.0000   1.0000   1.0000   1.0339  -0.0158  -0.0000  -0.0000  -0.0000
    -0.0000  -0.0000

          k = 0.2083 0.5774 0.0000 ( 32706 PWs)   bands (ev):

   -17.0443 -16.0214 -12.3948  -4.8935  -2.2588   7.2787   7.6988   8.3810
     8.6230   9.5455

     occupation numbers 
     1.0000   1.0000   1.0000   1.0311  -0.0046  -0.0000  -0.0000  -0.0000
    -0.0000  -0.0000

          k = 0.2292 0.3969 0.0000 ( 32594 PWs)   bands (ev):

   -19.2571 -13.3541 -11.7522  -6.8617   0.0857   4.7700   5.4628   5.6905
     5.7827   5.8664

     occupation numbers 
     1.0000   1.0000   1.0000   1.0011  -0.0008  -0.0000  -0.0000  -0.0000
    -0.0000  -0.0000

          k = 0.2292 0.4210 0.0000 ( 32608 PWs)   bands (ev):

   -18.9374 -13.6939 -12.0299  -6.5177  -0.3359   5.2260   5.8968   6.1692
     6.2556   6.3443

     occupation numbers 
     1.0000   1.0000   1.0000   1.0031  -0.0030  -0.0000  -0.0000  -0.0000
    -0.0000  -0.0000

          k = 0.2292 0.4450 0.0000 ( 32619 PWs)   bands (ev):

   -18.6033 -14.0619 -12.2567  -6.1661  -0.7553   5.7056   6.3327   6.6760
     6.7551   6.8501

     occupation numbers 
     1.0000   1.0000   1.0000   1.0078  -0.0088  -0.0000  -0.0000  -0.0000
    -0.0000  -0.0000

          k = 0.2292 0.4691 0.0000 ( 32660 PWs)   bands (ev):

   -18.2567 -14.4512 -12.4350  -5.8127  -1.1662   6.2072   6.7469   7.2109
     7.2806   7.3836

     occupation numbers 
     1.0000   1.0000   1.0000   1.0165  -0.0200  -0.0000  -0.0000  -0.0000
    -0.0000  -0.0000

          k = 0.2292 0.4932 0.0000 ( 32660 PWs)   bands (ev):

   -17.9012 -14.8510 -12.5701  -5.4672  -1.5584   6.7278   7.0979   7.7735
     7.8309   7.9208

     occupation numbers 
     1.0000   1.0000   1.0000   1.0279  -0.0325  -0.0000  -0.0000  -0.0000
    -0.0000  -0.0000

          k = 0.2292 0.5172 0.0000 ( 32689 PWs)   bands (ev):

   -17.5441 -15.2471 -12.6670  -5.1468  -1.9145   7.2601   7.3411   7.9064
     8.3654   8.4051

     occupation numbers 
     1.0000   1.0000   1.0000   1.0353  -0.0334  -0.0000  -0.0000  -0.0000
    -0.0000  -0.0000

          k = 0.2292 0.5413 0.0000 ( 32683 PWs)   bands (ev):

   -17.2045 -15.6154 -12.7296  -4.8823  -2.2030   7.4714   7.7425   7.9456
     8.9845   8.9993

     occupation numbers 
     1.0000   1.0000   1.0000   1.0306  -0.0122  -0.0000  -0.0000  -0.0000
    -0.0000  -0.0000

          k = 0.2292 0.5653 0.0000 ( 32692 PWs)   bands (ev):

   -16.9493 -15.8856 -12.7603  -4.7245  -2.3729   7.5228   7.8289   8.3750
     8.9671   9.5895

     occupation numbers 
     1.0000   1.0000   1.0000   1.0189   0.0153  -0.0000  -0.0000  -0.0000
    -0.0000  -0.0000

          k = 0.2500 0.4330 0.0000 ( 32604 PWs)   bands (ev):

   -18.6123 -13.9821 -12.3393  -6.1715  -0.7355   5.6923   6.3150   6.6619
     6.7408   6.8362

     occupation numbers 
     1.0000   1.0000   1.0000   1.0077  -0.0084  -0.0000  -0.0000  -0.0000
    -0.0000  -0.0000

          k = 0.2500 0.4571 0.0000 ( 32668 PWs)   bands (ev):

   -18.2741 -14.3006 -12.5948  -5.8190  -1.1331   6.1809   6.7064   7.1827
     7.2516   7.3558

     occupation numbers 
     1.0000   1.0000   1.0000   1.0163  -0.0189  -0.0000  -0.0000  -0.0000
    -0.0000  -0.0000

          k = 0.2500 0.4811 0.0000 ( 32674 PWs)   bands (ev):

   -17.9253 -14.6467 -12.7937  -5.4668  -1.5222   6.6894   7.0263   7.7317
     7.7875   7.9031

     occupation numbers 
     1.0000   1.0000   1.0000   1.0279  -0.0316  -0.0000  -0.0000  -0.0000
    -0.0000  -0.0000

          k = 0.2500 0.5052 0.0000 ( 32686 PWs)   bands (ev):

   -17.5707 -15.0100 -12.9396  -5.1261  -1.8916   7.2131   7.2321   8.3082
     8.3474   8.4449

     occupation numbers 
     1.0000   1.0000   1.0000   1.0354  -0.0340  -0.0000  -0.0000  -0.0000
    -0.0000  -0.0000

          k = 0.2500 0.5292 0.0000 ( 32699 PWs)   bands (ev):

   -17.2210 -15.3721 -13.0386  -4.8186  -2.2198   7.3311   7.7418   8.4285
     8.9141   8.9299

     occupation numbers 
     1.0000   1.0000   1.0000   1.0269  -0.0101  -0.0000  -0.0000  -0.0000
    -0.0000  -0.0000

          k = 0.2500 0.5533 0.0000 ( 32693 PWs)   bands (ev):

   -16.9099 -15.6933 -13.0959  -4.5862  -2.4647   7.3674   8.2221   8.4509
     9.3327   9.5458

     occupation numbers 
     1.0000   1.0000   1.0000   1.0011   0.0359  -0.0000  -0.0000  -0.0000
    -0.0000  -0.0000

          k = 0.2500 0.5774 0.0000 ( 32704 PWs)   bands (ev):

   -16.7577 -15.8493 -13.1146  -4.4951  -2.5599   7.3756   8.3427   8.6935
     9.0298  10.0049

     occupation numbers 
     1.0000   1.0000   1.0000   0.9847   0.0619  -0.0000  -0.0000  -0.0000
    -0.0000  -0.0000

          k = 0.2708 0.4691 0.0000 ( 32696 PWs)   bands (ev):

   -17.9334 -14.5657 -12.8812  -5.4668  -1.5095   6.6764   7.0018   7.7176
     7.7729   7.8893

     occupation numbers 
     1.0000   1.0000   1.0000   1.0279  -0.0312  -0.0000  -0.0000  -0.0000
    -0.0000  -0.0000

          k = 0.2708 0.4932 0.0000 ( 32674 PWs)   bands (ev):

   -17.5845 -14.8610 -13.1063  -5.1163  -1.8785   7.1756   7.1879   8.2806
     8.3185   8.4500

     occupation numbers 
     1.0000   1.0000   1.0000   1.0354  -0.0343  -0.0000  -0.0000  -0.0000
    -0.0000  -0.0000

          k = 0.2708 0.5172 0.0000 ( 32704 PWs)   bands (ev):

   -17.2339 -15.1796 -13.2683  -4.7806  -2.2278   7.2425   7.7080   8.8696
     8.8880   8.9122

     occupation numbers 
     1.0000   1.0000   1.0000   1.0240  -0.0090  -0.0000  -0.0000  -0.0000
    -0.0000  -0.0000

          k = 0.2708 0.5413 0.0000 ( 32692 PWs)   bands (ev):

   -16.8985 -15.4993 -13.3716  -4.4871  -2.5301   7.2544   8.2197   8.8798
     9.4886   9.5724

     occupation numbers 
     1.0000   1.0000   1.0000   0.9831   0.0532  -0.0000  -0.0000  -0.0000
    -0.0000  -0.0000

          k = 0.2708 0.5653 0.0000 ( 32695 PWs)   bands (ev):

   -16.6394 -15.7525 -13.4216  -4.2971  -2.7244   7.2513   8.6620   8.8585
     9.3586  10.0751

     occupation numbers 
     1.0000   1.0000   1.0000   0.9349   0.1183  -0.0000  -0.0000  -0.0000
    -0.0000  -0.0000

          k = 0.2917 0.5052 0.0000 ( 32704 PWs)   bands (ev):

   -17.2386 -15.1027 -13.3574  -4.7679  -2.2301   7.2122   7.6960   8.8574
     8.8737   9.0720

     occupation numbers 
     1.0000   1.0000   1.0000   1.0230  -0.0087  -0.0000  -0.0000  -0.0000
    -0.0000  -0.0000

          k = 0.2917 0.5292 0.0000 ( 32678 PWs)   bands (ev):

   -16.8967 -15.3713 -13.5370  -4.4351  -2.5644   7.1953   8.1997   9.2089
     9.4540   9.4610

     occupation numbers 
     1.0000   1.0000   1.0000   0.9717   0.0632  -0.0000  -0.0000  -0.0000
    -0.0000  -0.0000

          k = 0.2917 0.5533 0.0000 ( 32680 PWs)   bands (ev):

   -16.5846 -15.6415 -13.6431  -4.1543  -2.8457   7.1702   8.6669   9.1629
     9.6550  10.0544

     occupation numbers 
     1.0000   1.0000   1.0000   0.8858   0.1693  -0.0000  -0.0000  -0.0000
    -0.0000  -0.0000

          k = 0.2917 0.5774 0.0000 ( 32642 PWs)   bands (ev):

   -16.4197 -15.7931 -13.6779  -4.0275  -2.9726   7.1597   8.9929   9.0429
     9.5845  10.5472

     occupation numbers 
     1.0000   1.0000   1.0000   0.8331   0.2305  -0.0000  -0.0000  -0.0000
    -0.0000  -0.0000

          k = 0.3125 0.5413 0.0000 ( 32698 PWs)   bands (ev):

   -16.5697 -15.5915 -13.7267  -4.1002  -2.8923   7.1423   8.6602   9.2857
     9.7692  10.0446

     occupation numbers 
     1.0000   1.0000   1.0000   0.8644   0.1909  -0.0000  -0.0000  -0.0000
    -0.0000  -0.0000

          k = 0.3125 0.5653 0.0000 ( 32655 PWs)   bands (ev):

   -16.2908 -15.8145 -13.8242  -3.8222  -3.1667   7.1103   9.0263   9.2410
     9.8103  10.6424

     occupation numbers 
     1.0000   1.0000   1.0000   0.7309   0.3372  -0.0000  -0.0000  -0.0000
    -0.0000  -0.0000

          k = 0.3333 0.5774 0.0000 ( 32640 PWs)   bands (ev):

   -16.0307 -16.0307 -13.8884  -3.4925  -3.4925   7.0890   9.2121   9.2121
     9.8794  11.1720

     occupation numbers 
     1.0000   1.0000   1.0000   0.5363   0.5363  -0.0000  -0.0000  -0.0000
    -0.0000  -0.0000

     the Fermi energy is    -3.4340 ev

!    total energy              =     -36.88592352 Ry
     Harris-Foulkes estimate   =     -36.88592351 Ry
     estimated scf accuracy    <          6.1E-09 Ry

     total all-electron energy =      -152.414119 Ry

     The total energy is the sum of the following terms:

     one-electron contribution =    -567.74333552 Ry
     hartree contribution      =     284.97099636 Ry
     xc contribution           =      -9.23805903 Ry
     ewald contribution        =     267.45186044 Ry
     one-center paw contrib.   =     -12.33247995 Ry
      -> PAW hartree energy AE =       9.18662593 Ry
      -> PAW hartree energy PS =      -9.17809512 Ry
      -> PAW xc energy AE      =     -10.60071070 Ry
      -> PAW xc energy PS      =       4.42593992 Ry
      -> total E_H with PAW    =     284.97952716 Ry
      -> total E_XC with PAW   =     -15.41282981 Ry
     smearing contrib. (-TS)   =       0.00509419 Ry

     convergence has been achieved in   8 iterations

     negative rho (up, down):  8.832E-05 0.000E+00

     Forces acting on atoms (cartesian axes, Ry/au):

     atom    1 type  1   force =     0.00000000    0.00000000    0.00000000
     atom    2 type  1   force =     0.00000000   -0.00000000    0.00000000
     The non-local contrib.  to forces
     atom    1 type  1   force =    -0.00000000   -0.00000000    0.00000000
     atom    2 type  1   force =     0.00000000   -0.00000000   -0.00000000
     The ionic contribution  to forces
     atom    1 type  1   force =     0.00000000   -0.00000000    0.00000000
     atom    2 type  1   force =    -0.00000000    0.00000000    0.00000000
     The local contribution  to forces
     atom    1 type  1   force =     0.00000000    0.00000000   -0.00000000
     atom    2 type  1   force =     0.00000000    0.00000000   -0.00000000
     The core correction contribution to forces
     atom    1 type  1   force =    -0.00000000   -0.00000000    0.00000000
     atom    2 type  1   force =    -0.00000000   -0.00000000    0.00000000
     The Hubbard contrib.    to forces
     atom    1 type  1   force =     0.00000000    0.00000000    0.00000000
     atom    2 type  1   force =     0.00000000    0.00000000    0.00000000
     The SCF correction term to forces
     atom    1 type  1   force =     0.00000000   -0.00000000    0.00000000
     atom    2 type  1   force =    -0.00000000    0.00000000    0.00000000

     Total force =     0.000000     Total SCF correction =     0.000000


     Computing stress (Cartesian axis) and pressure


     negative rho (up, down):  8.832E-05 0.000E+00
          total   stress  (Ry/bohr**3)                   (kbar)     P=       -4.63
  -0.00004714   0.00000000   0.00000000           -6.93        0.00        0.00
   0.00000000  -0.00004714  -0.00000000            0.00       -6.93       -0.00
   0.00000000  -0.00000000  -0.00000025            0.00       -0.00       -0.04

     kinetic stress (kbar)    815.31      0.00      0.00
                                0.00    815.31      0.00
                                0.00      0.00    930.12

     local   stress (kbar) -51080.49      0.00      0.00
                                0.00 -51080.49     -0.00
                                0.00     -0.00  51010.87

     nonloc. stress (kbar)    208.07      0.00      0.00
                                0.00    208.07      0.00
                                0.00      0.00    190.31

     hartree stress (kbar)  25002.40      0.00      0.00
                                0.00  25002.40     -0.00
                                0.00     -0.00 -24928.00

     exc-cor stress (kbar)    -13.94     -0.00     -0.00
                               -0.00    -13.94     -0.00
                               -0.00     -0.00    -23.20

     corecor stress (kbar)   -198.38      0.00      0.00
                                0.00   -198.38      0.00
                                0.00      0.00   -195.10

     ewald   stress (kbar)  25260.09     -0.00      0.00
                               -0.00  25260.09      0.00
                                0.00      0.00 -26985.03

     hubbard stress (kbar)      0.00      0.00      0.00
                                0.00      0.00      0.00
                                0.00      0.00      0.00

     london  stress (kbar)      0.00      0.00      0.00
                                0.00      0.00      0.00
                                0.00      0.00      0.00

     DFT-D3  stress (kbar)      0.00      0.00      0.00
                                0.00      0.00      0.00
                                0.00      0.00      0.00

     XDM     stress (kbar)      0.00      0.00      0.00
                                0.00      0.00      0.00
                                0.00      0.00      0.00

     dft-nl  stress (kbar)      0.00      0.00      0.00
                                0.00      0.00      0.00
                                0.00      0.00      0.00

     TS-vdW  stress (kbar)      0.00      0.00      0.00
                                0.00      0.00      0.00
                                0.00      0.00      0.00



     Writing output data file ./outdir/graphene.save/
 
     init_run     :     44.41s CPU     45.58s WALL (       1 calls)
     electrons    :   1408.84s CPU   1423.29s WALL (       1 calls)
     forces       :      3.40s CPU      3.44s WALL (       1 calls)
     stress       :     15.61s CPU     15.84s WALL (       1 calls)

     Called by init_run:
     wfcinit      :     43.34s CPU     44.31s WALL (       1 calls)
     wfcinit:atom :      0.65s CPU      0.66s WALL (     217 calls)
     wfcinit:wfcr :     41.50s CPU     42.44s WALL (     217 calls)
     potinit      :      0.36s CPU      0.50s WALL (       1 calls)
     hinit0       :      0.18s CPU      0.21s WALL (       1 calls)

     Called by electrons:
     c_bands      :   1205.71s CPU   1217.93s WALL (       8 calls)
     sum_band     :    199.88s CPU    201.86s WALL (       8 calls)
     v_of_rho     :      2.01s CPU      2.08s WALL (       9 calls)
     v_h          :      0.19s CPU      0.20s WALL (       9 calls)
     v_xc         :      2.19s CPU      2.27s WALL (      11 calls)
     newd         :      0.80s CPU      1.01s WALL (       9 calls)
     PAW_pot      :      0.29s CPU      0.39s WALL (       9 calls)
     mix_rho      :      0.48s CPU      0.51s WALL (       8 calls)

     Called by c_bands:
     init_us_2    :     10.44s CPU     10.62s WALL (    4123 calls)
     cegterg      :   1185.05s CPU   1196.99s WALL (    1736 calls)

     Called by sum_band:
     sum_band:bec :      0.02s CPU      0.02s WALL (    1736 calls)
     addusdens    :      0.87s CPU      1.08s WALL (       8 calls)

     Called by *egterg:
     h_psi        :   1123.56s CPU   1134.57s WALL (   13272 calls)
     s_psi        :     11.91s CPU     12.27s WALL (   13272 calls)
     g_psi        :      2.75s CPU      2.79s WALL (   11319 calls)
     cdiaghg      :      2.88s CPU      3.02s WALL (   13055 calls)
     cegterg:over :     33.93s CPU     34.49s WALL (   11319 calls)
     cegterg:upda :     27.28s CPU     27.49s WALL (   11319 calls)
     cegterg:last :      9.34s CPU      9.42s WALL (    2331 calls)

     Called by h_psi:
     h_psi:calbec :     14.48s CPU     14.62s WALL (   13272 calls)
     vloc_psi     :   1089.34s CPU   1099.85s WALL (   13272 calls)
     add_vuspsi   :     13.00s CPU     13.15s WALL (   13272 calls)

     General routines
     calbec       :     18.11s CPU     18.29s WALL (   16093 calls)
     fft          :      1.96s CPU      2.03s WALL (     124 calls)
     ffts         :      0.12s CPU      0.12s WALL (       8 calls)
     fftw         :   1012.46s CPU   1022.05s WALL (  141400 calls)
 
     Parallel routines
     fft_scatt_xy :    261.44s CPU    264.13s WALL (  141532 calls)
     fft_scatt_yz :    220.62s CPU    223.06s WALL (  141532 calls)

     PAW routines
     PAW_pot      :      0.29s CPU      0.39s WALL (       9 calls)
     PAW_symme    :      0.00s CPU      0.00s WALL (      17 calls)
 
     PWSCF        :  24m33.36s CPU  24m51.92s WALL

 
   This run was terminated on:  13:52:56  17Dec2019            

=------------------------------------------------------------------------------=
   JOB DONE.
=------------------------------------------------------------------------------=
