
     Program PHONON v.6.5 starts on 17Dec2019 at 13:56:40 

     This program is part of the open-source Quantum ESPRESSO suite
     for quantum simulation of materials; please cite
         "P. Giannozzi et al., J. Phys.:Condens. Matter 21 395502 (2009);
         "P. Giannozzi et al., J. Phys.:Condens. Matter 29 465901 (2017);
          URL http://www.quantum-espresso.org", 
     in publications or presentations arising from this work. More details at
     http://www.quantum-espresso.org/quote

     Parallel version (MPI), running on     2 processors

     MPI processes distributed on     1 nodes
     R & G space division:  proc/nbgrp/npool/nimage =       2

     Reading xml data from directory:

     ./outdir/graphene.save/

     IMPORTANT: XC functional enforced from input :
     Exchange-correlation= PBE
                           (   1   4   3   4   0   0   0)
     Any further DFT definition will be discarded
     Please, verify this is what you really want

               file C.pbe-n-kjpaw_psl.1.0.0.UPF: wavefunction(s)  2S 2P renormalized
 
     Parallelization info
     --------------------
     sticks:   dense  smooth     PW     G-vecs:    dense   smooth      PW
     Min         336     336     99               130416   130416   20927
     Max         337     337    100               130459   130459   20964
     Sum         673     673    199               260875   260875   41891
 

     negative rho (up, down):  8.832E-05 0.000E+00
     Reading collected, re-writing distributed wavefunctions


     Dynamical matrices for (12,12, 1)  uniform grid of q-points
     (  19 q-points):
       N         xq(1)         xq(2)         xq(3) 
       1   0.000000000   0.000000000   0.000000000
       2   0.000000000   0.096225045   0.000000000
       3   0.000000000   0.192450090   0.000000000
       4   0.000000000   0.288675135   0.000000000
       5   0.000000000   0.384900179   0.000000000
       6   0.000000000   0.481125224   0.000000000
       7   0.000000000  -0.577350269   0.000000000
       8   0.083333333   0.144337567   0.000000000
       9   0.083333333   0.240562612   0.000000000
      10   0.083333333   0.336787657   0.000000000
      11   0.083333333   0.433012702   0.000000000
      12   0.083333333   0.529237747   0.000000000
      13   0.166666667   0.288675135   0.000000000
      14   0.166666667   0.384900179   0.000000000
      15   0.166666667   0.481125224   0.000000000
      16   0.166666667   0.577350269   0.000000000
      17   0.250000000   0.433012702   0.000000000
      18   0.250000000   0.529237747   0.000000000
      19   0.333333333   0.577350269   0.000000000

     Calculation of q =    0.0000000   0.0000000   0.0000000

     Phonon Dispersion of graphene                                              

     bravais-lattice index     =            4
     lattice parameter (alat)  =       4.6980  a.u.
     unit-cell volume          =    1671.6911 (a.u.)^3
     number of atoms/cell      =            2
     number of atomic types    =            1
     kinetic-energy cut-off    =     110.0000  Ry
     charge density cut-off    =     440.0000  Ry
     convergence threshold     =      1.0E-12
     beta                      =       0.7000
     number of iterations used =            4
     Exchange-correlation= PBE
                           (   1   4   3   4   0   0   0)


     celldm(1)=    4.69800  celldm(2)=    0.00000  celldm(3)=   18.61600
     celldm(4)=    0.00000  celldm(5)=    0.00000  celldm(6)=    0.00000

     crystal axes: (cart. coord. in units of alat)
               a(1) = (  1.0000  0.0000  0.0000 )  
               a(2) = ( -0.5000  0.8660  0.0000 )  
               a(3) = (  0.0000  0.0000 18.6160 )  

     reciprocal axes: (cart. coord. in units 2 pi/alat)
               b(1) = (  1.0000  0.5774  0.0000 )  
               b(2) = (  0.0000  1.1547  0.0000 )  
               b(3) = (  0.0000  0.0000  0.0537 )  


     Atoms inside the unit cell: 

     Cartesian axes

     site n.  atom      mass           positions (alat units)
        1     C   12.0100   tau(    1) = (    0.50000    0.28868    0.00000  )
        2     C   12.0100   tau(    2) = (    0.00000    0.57735    0.00000  )

     Computing dynamical matrix for 
                    q = (   0.0000000   0.0000000   0.0000000 )
 
     25 Sym.Ops. (with q -> -q+G )


     G cutoff =  245.9909  ( 130459 G-vectors)     FFT grid: ( 32, 32,600)

     number of k points=   217  Methfessel-Paxton smearing, width (Ry)=  0.1000

     PseudoPot. # 1 for C  read from file:
     /home/ubuntu/quantum_espresso_2019/SSSP_efficiency_pseudos/C.pbe-n-kjpaw_psl.1.0.0.UPF
     MD5 check sum: 5d2aebdfa2cae82b50a7e79e9516da0f
     Pseudo is Projector augmented-wave + core cor, Zval =  4.0
     Generated using "atomic" code by A. Dal Corso v.5.1
     Shape of augmentation charge: PSQ
     Using radial grid of 1073 points,  4 beta functions with: 
                l(1) =   0
                l(2) =   0
                l(3) =   1
                l(4) =   1
     Q(r) pseudized with 0 coefficients 


     Mode symmetry, D_6h(6/mmm) point group:


     Atomic displacements:
     There are   4 irreducible representations

     Representation     1      1 modes -B_1g  To be done

     Representation     2      2 modes -E_2g  To be done

     Representation     3      1 modes -A_2u  To be done

     Representation     4      2 modes -E_1u  To be done



     Alpha used in Ewald sum =   2.8000

     negative rho (up, down):  8.832E-05 0.000E+00
     PHONON       :   2m 4.22s CPU   2m 6.91s WALL



     Representation #  1 mode #   1

     Self-consistent Calculation
 
     Pert. #  1: Fermi energy shift (Ry) =     4.4116E-24     0.0000E+00

      iter #   1 total cpu time :   330.5 secs   av.it.:   3.9
      thresh= 1.000E-02 alpha_mix =  0.700 |ddv_scf|^2 =  5.066E-08
 
     Pert. #  1: Fermi energy shift (Ry) =     0.0000E+00     0.0000E+00

      iter #   2 total cpu time :   564.7 secs   av.it.:   8.4
      thresh= 2.251E-05 alpha_mix =  0.700 |ddv_scf|^2 =  4.522E-09
 
     Pert. #  1: Fermi energy shift (Ry) =     2.2058E-24     0.0000E+00

      iter #   3 total cpu time :   774.9 secs   av.it.:   7.9
      thresh= 6.724E-06 alpha_mix =  0.700 |ddv_scf|^2 =  1.662E-12
 
     Pert. #  1: Fermi energy shift (Ry) =     0.0000E+00     0.0000E+00

      iter #   4 total cpu time :  1022.7 secs   av.it.:   9.6
      thresh= 1.289E-07 alpha_mix =  0.700 |ddv_scf|^2 =  6.219E-14

     End of self-consistent calculation

     Convergence has been achieved 


     Representation #  2 modes #   2  3

     Self-consistent Calculation
 
     Pert. #  1: Fermi energy shift (Ry) =    -4.0477E-18    -2.4489E-39
     Pert. #  2: Fermi energy shift (Ry) =     5.9270E-18     2.9387E-39

      iter #   1 total cpu time :  1388.4 secs   av.it.:   5.0
      thresh= 1.000E-02 alpha_mix =  0.700 |ddv_scf|^2 =  7.957E-09
 
     Pert. #  1: Fermi energy shift (Ry) =     6.3607E-18    -4.8979E-40
     Pert. #  2: Fermi energy shift (Ry) =     7.3726E-18    -7.9591E-40

      iter #   2 total cpu time :  2001.4 secs   av.it.:  10.5
      thresh= 8.920E-06 alpha_mix =  0.700 |ddv_scf|^2 =  5.491E-10
 
     Pert. #  1: Fermi energy shift (Ry) =     3.1803E-18     2.4489E-40
     Pert. #  2: Fermi energy shift (Ry) =    -7.2280E-19    -3.0612E-40

      iter #   3 total cpu time :  2546.1 secs   av.it.:   9.3
      thresh= 2.343E-06 alpha_mix =  0.700 |ddv_scf|^2 =  5.860E-12
 
     Pert. #  1: Fermi energy shift (Ry) =     5.7824E-19     2.4489E-40
     Pert. #  2: Fermi energy shift (Ry) =    -2.7466E-18    -3.0612E-40

      iter #   4 total cpu time :  3076.7 secs   av.it.:   9.8
      thresh= 2.421E-07 alpha_mix =  0.700 |ddv_scf|^2 =  2.532E-14

     End of self-consistent calculation

     Convergence has been achieved 


     Representation #  3 mode #   4

     Self-consistent Calculation
 
     Pert. #  1: Fermi energy shift (Ry) =    -3.5293E-23     0.0000E+00

      iter #   1 total cpu time :  3294.9 secs   av.it.:   5.7
      thresh= 1.000E-02 alpha_mix =  0.700 |ddv_scf|^2 =  1.818E-05
 
     Pert. #  1: Fermi energy shift (Ry) =    -3.5293E-23     0.0000E+00

      iter #   2 total cpu time :  3516.2 secs   av.it.:   9.0
      thresh= 4.264E-04 alpha_mix =  0.700 |ddv_scf|^2 =  2.583E-05
 
     Pert. #  1: Fermi energy shift (Ry) =    -3.5293E-23     0.0000E+00

      iter #   3 total cpu time :  3724.8 secs   av.it.:   8.2
      thresh= 5.082E-04 alpha_mix =  0.700 |ddv_scf|^2 =  2.371E-08
 
     Pert. #  1: Fermi energy shift (Ry) =     0.0000E+00     0.0000E+00

      iter #   4 total cpu time :  3930.6 secs   av.it.:   8.2
      thresh= 1.540E-05 alpha_mix =  0.700 |ddv_scf|^2 =  1.221E-09
 
     Pert. #  1: Fermi energy shift (Ry) =     0.0000E+00     0.0000E+00

      iter #   5 total cpu time :  4138.3 secs   av.it.:   8.2
      thresh= 3.494E-06 alpha_mix =  0.700 |ddv_scf|^2 =  3.446E-12
 
     Pert. #  1: Fermi energy shift (Ry) =     0.0000E+00     0.0000E+00

      iter #   6 total cpu time :  4342.0 secs   av.it.:   7.9
      thresh= 1.856E-07 alpha_mix =  0.700 |ddv_scf|^2 =  3.437E-13

     End of self-consistent calculation

     Convergence has been achieved 


     Representation #  4 modes #   5  6

     Self-consistent Calculation
 
     Pert. #  1: Fermi energy shift (Ry) =     0.0000E+00    -6.5201E-36
     Pert. #  2: Fermi energy shift (Ry) =     1.7647E-23     1.0031E-36

      iter #   1 total cpu time :  4733.3 secs   av.it.:   4.5
      thresh= 1.000E-02 alpha_mix =  0.700 |ddv_scf|^2 =  8.426E-09
 
     Pert. #  1: Fermi energy shift (Ry) =     4.4116E-24    -1.9592E-39
     Pert. #  2: Fermi energy shift (Ry) =    -7.7204E-24    -8.8162E-39

      iter #   2 total cpu time :  5290.8 secs   av.it.:   9.7
      thresh= 9.179E-06 alpha_mix =  0.700 |ddv_scf|^2 =  7.299E-10
 
     Pert. #  1: Fermi energy shift (Ry) =    -2.2058E-24    -1.9592E-39
     Pert. #  2: Fermi energy shift (Ry) =    -6.6174E-24    -8.8162E-39

      iter #   3 total cpu time :  5815.8 secs   av.it.:   9.0
      thresh= 2.702E-06 alpha_mix =  0.700 |ddv_scf|^2 =  5.753E-13

     End of self-consistent calculation

     Convergence has been achieved 
 
     Number of q in the star =    1
     List of q in the star:
          1   0.000000000   0.000000000   0.000000000

     Diagonalizing the dynamical matrix

     q = (    0.000000000   0.000000000   0.000000000 ) 

 **************************************************************************
     freq (    1) =      -1.189307 [THz] =     -39.671008 [cm-1]
     freq (    2) =       3.632252 [THz] =     121.158892 [cm-1]
     freq (    3) =       3.632252 [THz] =     121.158892 [cm-1]
     freq (    4) =      26.357689 [THz] =     879.197875 [cm-1]
     freq (    5) =      45.149748 [THz] =    1506.033479 [cm-1]
     freq (    6) =      45.149748 [THz] =    1506.033479 [cm-1]
 **************************************************************************

     Mode symmetry, D_6h(6/mmm) point group:

     freq (  1 -  1) =        -39.7  [cm-1]   --> A_2u            I  
     freq (  2 -  3) =        121.2  [cm-1]   --> E_1u            I  
     freq (  4 -  4) =        879.2  [cm-1]   --> B_1g               
     freq (  5 -  6) =       1506.0  [cm-1]   --> E_2g            R  

     Calculation of q =    0.0000000   0.0962250   0.0000000

     Subspace diagonalization in iterative solution of the eigenvalue problem:
     a serial algorithm will be used

 
     Parallelization info
     --------------------
     sticks:   dense  smooth     PW     G-vecs:    dense   smooth      PW
     Min         336     336     99               130416   130416   21485
     Max         337     337    100               130459   130459   21536
     Sum         673     673    199               260875   260875   43021
 

     Title: 
     Phonon Dispersion of graphene                                              


     bravais-lattice index     =            4
     lattice parameter (alat)  =       4.6980  a.u.
     unit-cell volume          =    1671.6911 (a.u.)^3
     number of atoms/cell      =            2
     number of atomic types    =            1
     number of electrons       =         8.00
     number of Kohn-Sham states=           10
     kinetic-energy cutoff     =     110.0000  Ry
     charge density cutoff     =     440.0000  Ry
     Exchange-correlation= PBE
                           (   1   4   3   4   0   0   0)

     celldm(1)=   4.698000  celldm(2)=   0.000000  celldm(3)=  18.616000
     celldm(4)=   0.000000  celldm(5)=   0.000000  celldm(6)=   0.000000

     crystal axes: (cart. coord. in units of alat)
               a(1) = (   1.000000   0.000000   0.000000 )  
               a(2) = (  -0.500000   0.866025   0.000000 )  
               a(3) = (   0.000000   0.000000  18.616000 )  

     reciprocal axes: (cart. coord. in units 2 pi/alat)
               b(1) = (  1.000000  0.577350  0.000000 )  
               b(2) = (  0.000000  1.154701  0.000000 )  
               b(3) = (  0.000000  0.000000  0.053717 )  


     PseudoPot. # 1 for C  read from file:
     /home/ubuntu/quantum_espresso_2019/SSSP_efficiency_pseudos/C.pbe-n-kjpaw_psl.1.0.0.UPF
     MD5 check sum: 5d2aebdfa2cae82b50a7e79e9516da0f
     Pseudo is Projector augmented-wave + core cor, Zval =  4.0
     Generated using "atomic" code by A. Dal Corso v.5.1
     Shape of augmentation charge: PSQ
     Using radial grid of 1073 points,  4 beta functions with: 
                l(1) =   0
                l(2) =   0
                l(3) =   1
                l(4) =   1
     Q(r) pseudized with 0 coefficients 


     atomic species   valence    mass     pseudopotential
        C              4.00    12.01000     C ( 1.00)

     24 Sym. Ops., with inversion, found



   Cartesian axes

     site n.     atom                  positions (alat units)
         1           C   tau(   1) = (   0.5000000   0.2886751   0.0000000  )
         2           C   tau(   2) = (   0.0000000   0.5773503   0.0000000  )

     number of k points=  2352  Methfessel-Paxton smearing, width (Ry)=  0.1000

     Number of k-points >= 100: set verbosity='high' to print them.

     Dense  grid:   260875 G-vectors     FFT dimensions: (  32,  32, 600)

     Estimated max dynamical RAM per process >     135.65 MB

     Estimated total dynamical RAM >     271.30 MB

     The potential is recalculated from file :
     ./outdir/_ph0/graphene.save/charge-density


     negative rho (up, down):  8.832E-05 0.000E+00
     Starting wfcs are    8 atomic +    2 random wfcs
     Checking if some PAW data can be deallocated... 

     Band Structure Calculation
     Davidson diagonalization with overlap
     c_bands:  1 eigenvalues not converged
     c_bands:  1 eigenvalues not converged
     c_bands:  1 eigenvalues not converged
     c_bands:  1 eigenvalues not converged
     c_bands:  1 eigenvalues not converged
     c_bands:  1 eigenvalues not converged
     c_bands:  1 eigenvalues not converged
     c_bands:  1 eigenvalues not converged
     c_bands:  1 eigenvalues not converged
     c_bands:  1 eigenvalues not converged
     c_bands:  1 eigenvalues not converged
     c_bands:  1 eigenvalues not converged
     c_bands:  1 eigenvalues not converged
     c_bands:  1 eigenvalues not converged
     c_bands:  1 eigenvalues not converged
     c_bands:  1 eigenvalues not converged
     c_bands:  1 eigenvalues not converged
     c_bands:  1 eigenvalues not converged
     c_bands:  1 eigenvalues not converged
     c_bands:  1 eigenvalues not converged
     c_bands:  1 eigenvalues not converged
     c_bands:  1 eigenvalues not converged
     c_bands:  1 eigenvalues not converged
     c_bands:  1 eigenvalues not converged
     c_bands:  1 eigenvalues not converged
     c_bands:  1 eigenvalues not converged
     c_bands:  1 eigenvalues not converged
     c_bands:  1 eigenvalues not converged
     c_bands:  1 eigenvalues not converged
     c_bands:  1 eigenvalues not converged
     c_bands:  1 eigenvalues not converged
     c_bands:  1 eigenvalues not converged
     c_bands:  1 eigenvalues not converged
     c_bands:  1 eigenvalues not converged
     c_bands:  1 eigenvalues not converged
     c_bands:  1 eigenvalues not converged
     c_bands:  1 eigenvalues not converged
     c_bands:  1 eigenvalues not converged
     c_bands:  1 eigenvalues not converged
     c_bands:  1 eigenvalues not converged
     c_bands:  1 eigenvalues not converged
     c_bands:  1 eigenvalues not converged
     c_bands:  1 eigenvalues not converged
     c_bands:  1 eigenvalues not converged
     c_bands:  1 eigenvalues not converged

     ethr =  1.25E-10,  avg # of iterations = 71.1

     total cpu time spent up to now is    14543.0 secs

     End of band structure calculation

     Number of k-points >= 100: set verbosity='high' to print the bands.

     the Fermi energy is    -3.4346 ev

     Writing output data file ./outdir/_ph0/graphene.save/

     Phonon Dispersion of graphene                                              

     bravais-lattice index     =            4
     lattice parameter (alat)  =       4.6980  a.u.
     unit-cell volume          =    1671.6911 (a.u.)^3
     number of atoms/cell      =            2
     number of atomic types    =            1
     kinetic-energy cut-off    =     110.0000  Ry
     charge density cut-off    =     440.0000  Ry
     convergence threshold     =      1.0E-12
     beta                      =       0.7000
     number of iterations used =            4
     Exchange-correlation= PBE
                           (   1   4   3   4   0   0   0)


     celldm(1)=    4.69800  celldm(2)=    0.00000  celldm(3)=   18.61600
     celldm(4)=    0.00000  celldm(5)=    0.00000  celldm(6)=    0.00000

     crystal axes: (cart. coord. in units of alat)
               a(1) = (  1.0000  0.0000  0.0000 )  
               a(2) = ( -0.5000  0.8660  0.0000 )  
               a(3) = (  0.0000  0.0000 18.6160 )  

     reciprocal axes: (cart. coord. in units 2 pi/alat)
               b(1) = (  1.0000  0.5774  0.0000 )  
               b(2) = (  0.0000  1.1547  0.0000 )  
               b(3) = (  0.0000  0.0000  0.0537 )  


     Atoms inside the unit cell: 

     Cartesian axes

     site n.  atom      mass           positions (alat units)
        1     C   12.0100   tau(    1) = (    0.50000    0.28868    0.00000  )
        2     C   12.0100   tau(    2) = (    0.00000    0.57735    0.00000  )

     Computing dynamical matrix for 
                    q = (   0.0000000   0.0962250   0.0000000 )
 
      4 Sym.Ops. (no q -> -q+G )


     G cutoff =  245.9909  ( 130459 G-vectors)     FFT grid: ( 32, 32,600)

     number of k points=  2352  Methfessel-Paxton smearing, width (Ry)=  0.1000

     PseudoPot. # 1 for C  read from file:
     /home/ubuntu/quantum_espresso_2019/SSSP_efficiency_pseudos/C.pbe-n-kjpaw_psl.1.0.0.UPF
     MD5 check sum: 5d2aebdfa2cae82b50a7e79e9516da0f
     Pseudo is Projector augmented-wave + core cor, Zval =  4.0
     Generated using "atomic" code by A. Dal Corso v.5.1
     Shape of augmentation charge: PSQ
     Using radial grid of 1073 points,  4 beta functions with: 
                l(1) =   0
                l(2) =   0
                l(3) =   1
                l(4) =   1
     Q(r) pseudized with 0 coefficients 


     Mode symmetry, C_2v (mm2)  point group:


     Atomic displacements:
     There are   6 irreducible representations

     Representation     1      1 modes -A_1  D_1  S_1  To be done

     Representation     2      1 modes -A_1  D_1  S_1  To be done

     Representation     3      1 modes -B_1  D_3  S_3  To be done

     Representation     4      1 modes -B_1  D_3  S_3  To be done

     Representation     5      1 modes -B_2  D_4  S_4  To be done

     Representation     6      1 modes -B_2  D_4  S_4  To be done



     Alpha used in Ewald sum =   2.8000

     negative rho (up, down):  8.832E-05 0.000E+00
     PHONON       :      5h42m CPU      6h 6m WALL



     Representation #  1 mode #   1

     Self-consistent Calculation

      iter #   1 total cpu time : 23377.6 secs   av.it.:   5.5
      thresh= 1.000E-02 alpha_mix =  0.700 |ddv_scf|^2 =  8.143E-06

      iter #   2 total cpu time : 25404.5 secs   av.it.:   9.4
      thresh= 2.854E-04 alpha_mix =  0.700 |ddv_scf|^2 =  7.396E-05

      iter #   3 total cpu time : 27239.3 secs   av.it.:   7.8
      thresh= 8.600E-04 alpha_mix =  0.700 |ddv_scf|^2 =  2.948E-09

      iter #   4 total cpu time : 29296.9 secs   av.it.:  10.4
      thresh= 5.430E-06 alpha_mix =  0.700 |ddv_scf|^2 =  5.591E-10

      iter #   5 total cpu time : 31355.2 secs   av.it.:  10.7
      thresh= 2.364E-06 alpha_mix =  0.700 |ddv_scf|^2 =  1.101E-10

      iter #   6 total cpu time : 33395.3 secs   av.it.:  10.5
      thresh= 1.049E-06 alpha_mix =  0.700 |ddv_scf|^2 =  4.165E-12

      iter #   7 total cpu time : 35312.6 secs   av.it.:   9.3
      thresh= 2.041E-07 alpha_mix =  0.700 |ddv_scf|^2 =  6.053E-14

     End of self-consistent calculation

     Convergence has been achieved 


     Representation #  2 mode #   2

     Self-consistent Calculation

      iter #   1 total cpu time : 37292.1 secs   av.it.:   5.5
      thresh= 1.000E-02 alpha_mix =  0.700 |ddv_scf|^2 =  8.143E-06

      iter #   2 total cpu time : 39369.6 secs   av.it.:   9.4
      thresh= 2.854E-04 alpha_mix =  0.700 |ddv_scf|^2 =  7.396E-05

      iter #   3 total cpu time : 41227.0 secs   av.it.:   7.8
      thresh= 8.600E-04 alpha_mix =  0.700 |ddv_scf|^2 =  2.948E-09

      iter #   4 total cpu time : 43262.6 secs   av.it.:  10.4
      thresh= 5.430E-06 alpha_mix =  0.700 |ddv_scf|^2 =  5.591E-10

      iter #   5 total cpu time : 45318.0 secs   av.it.:  10.7
      thresh= 2.364E-06 alpha_mix =  0.700 |ddv_scf|^2 =  1.101E-10

      iter #   6 total cpu time : 47362.9 secs   av.it.:  10.5
      thresh= 1.049E-06 alpha_mix =  0.700 |ddv_scf|^2 =  4.164E-12

      iter #   7 total cpu time : 49285.2 secs   av.it.:   9.3
      thresh= 2.041E-07 alpha_mix =  0.700 |ddv_scf|^2 =  6.059E-14

     End of self-consistent calculation

     Convergence has been achieved 


     Representation #  3 mode #   3

     Self-consistent Calculation

      iter #   1 total cpu time : 51220.5 secs   av.it.:   5.1
      thresh= 1.000E-02 alpha_mix =  0.700 |ddv_scf|^2 =  3.343E-08

      iter #   2 total cpu time : 53308.8 secs   av.it.:  10.0
      thresh= 1.828E-05 alpha_mix =  0.700 |ddv_scf|^2 =  2.585E-09

      iter #   3 total cpu time : 55231.3 secs   av.it.:   8.8
      thresh= 5.084E-06 alpha_mix =  0.700 |ddv_scf|^2 =  1.260E-11

      iter #   4 total cpu time : 57142.9 secs   av.it.:   9.4
      thresh= 3.549E-07 alpha_mix =  0.700 |ddv_scf|^2 =  1.119E-13

     End of self-consistent calculation

     Convergence has been achieved 


     Representation #  4 mode #   4

     Self-consistent Calculation

      iter #   1 total cpu time : 59053.5 secs   av.it.:   5.1
      thresh= 1.000E-02 alpha_mix =  0.700 |ddv_scf|^2 =  3.343E-08

      iter #   2 total cpu time : 61090.2 secs   av.it.:  10.0
      thresh= 1.828E-05 alpha_mix =  0.700 |ddv_scf|^2 =  2.585E-09

      iter #   3 total cpu time : 63018.5 secs   av.it.:   8.8
      thresh= 5.084E-06 alpha_mix =  0.700 |ddv_scf|^2 =  1.260E-11

      iter #   4 total cpu time : 64949.6 secs   av.it.:   9.4
      thresh= 3.549E-07 alpha_mix =  0.700 |ddv_scf|^2 =  1.119E-13

     End of self-consistent calculation

     Convergence has been achieved 


     Representation #  5 mode #   5

     Self-consistent Calculation

      iter #   1 total cpu time : 66896.9 secs   av.it.:   5.5
      thresh= 1.000E-02 alpha_mix =  0.700 |ddv_scf|^2 =  1.329E-06

      iter #   2 total cpu time : 68936.0 secs   av.it.:   9.9
      thresh= 1.153E-04 alpha_mix =  0.700 |ddv_scf|^2 =  9.778E-07

      iter #   3 total cpu time : 70894.6 secs   av.it.:   9.1
      thresh= 9.888E-05 alpha_mix =  0.700 |ddv_scf|^2 =  1.991E-09

      iter #   4 total cpu time : 72774.5 secs   av.it.:   8.8
      thresh= 4.463E-06 alpha_mix =  0.700 |ddv_scf|^2 =  2.980E-11

      iter #   5 total cpu time : 74601.1 secs   av.it.:   8.5
      thresh= 5.459E-07 alpha_mix =  0.700 |ddv_scf|^2 =  2.508E-13

     End of self-consistent calculation

     Convergence has been achieved 


     Representation #  6 mode #   6

     Self-consistent Calculation

      iter #   1 total cpu time : 76534.4 secs   av.it.:   5.5
      thresh= 1.000E-02 alpha_mix =  0.700 |ddv_scf|^2 =  1.329E-06

      iter #   2 total cpu time : 78552.3 secs   av.it.:   9.9
      thresh= 1.153E-04 alpha_mix =  0.700 |ddv_scf|^2 =  9.778E-07

      iter #   3 total cpu time : 80519.8 secs   av.it.:   9.1
      thresh= 9.888E-05 alpha_mix =  0.700 |ddv_scf|^2 =  1.991E-09

      iter #   4 total cpu time : 82384.5 secs   av.it.:   8.8
      thresh= 4.462E-06 alpha_mix =  0.700 |ddv_scf|^2 =  2.985E-11

      iter #   5 total cpu time : 84252.3 secs   av.it.:   8.5
      thresh= 5.464E-07 alpha_mix =  0.700 |ddv_scf|^2 =  2.509E-13

     End of self-consistent calculation

     Convergence has been achieved 
 
     Number of q in the star =    6
     List of q in the star:
          1   0.000000000   0.096225045   0.000000000
          2   0.000000000  -0.096225045   0.000000000
          3  -0.083333333   0.048112522   0.000000000
          4  -0.083333333  -0.048112522   0.000000000
          5   0.083333333  -0.048112522   0.000000000
          6   0.083333333   0.048112522   0.000000000

     Diagonalizing the dynamical matrix

     q = (    0.000000000   0.096225045   0.000000000 ) 

 **************************************************************************
     freq (    1) =      -1.529149 [THz] =     -51.006916 [cm-1]
     freq (    2) =       5.235549 [THz] =     174.639116 [cm-1]
     freq (    3) =       8.124474 [THz] =     271.003265 [cm-1]
     freq (    4) =      26.230640 [THz] =     874.959984 [cm-1]
     freq (    5) =      44.779586 [THz] =    1493.686225 [cm-1]
     freq (    6) =      45.900592 [THz] =    1531.078936 [cm-1]
 **************************************************************************

     Mode symmetry, C_2v (mm2)  point group:

     freq (  1 -  1) =        -51.0  [cm-1]   --> B_2  D_4  S_4      
     freq (  2 -  2) =        174.6  [cm-1]   --> B_1  D_3  S_3      
     freq (  3 -  3) =        271.0  [cm-1]   --> A_1  D_1  S_1      
     freq (  4 -  4) =        875.0  [cm-1]   --> B_2  D_4  S_4      
     freq (  5 -  5) =       1493.7  [cm-1]   --> B_1  D_3  S_3      
     freq (  6 -  6) =       1531.1  [cm-1]   --> A_1  D_1  S_1      

     Calculation of q =    0.0000000   0.1924501   0.0000000
 
     Parallelization info
     --------------------
     sticks:   dense  smooth     PW     G-vecs:    dense   smooth      PW
     Min         336     336     99               130416   130416   21991
     Max         337     337    100               130459   130459   22066
     Sum         673     673    199               260875   260875   44057
 

     Title: 
     Phonon Dispersion of graphene                                              


     bravais-lattice index     =            4
     lattice parameter (alat)  =       4.6980  a.u.
     unit-cell volume          =    1671.6911 (a.u.)^3
     number of atoms/cell      =            2
     number of atomic types    =            1
     number of electrons       =         8.00
     number of Kohn-Sham states=           10
     kinetic-energy cutoff     =     110.0000  Ry
     charge density cutoff     =     440.0000  Ry
     Exchange-correlation= PBE
                           (   1   4   3   4   0   0   0)

     celldm(1)=   4.698000  celldm(2)=   0.000000  celldm(3)=  18.616000
     celldm(4)=   0.000000  celldm(5)=   0.000000  celldm(6)=   0.000000

     crystal axes: (cart. coord. in units of alat)
               a(1) = (   1.000000   0.000000   0.000000 )  
               a(2) = (  -0.500000   0.866025   0.000000 )  
               a(3) = (   0.000000   0.000000  18.616000 )  

     reciprocal axes: (cart. coord. in units 2 pi/alat)
               b(1) = (  1.000000  0.577350  0.000000 )  
               b(2) = (  0.000000  1.154701  0.000000 )  
               b(3) = (  0.000000  0.000000  0.053717 )  


     PseudoPot. # 1 for C  read from file:
     /home/ubuntu/quantum_espresso_2019/SSSP_efficiency_pseudos/C.pbe-n-kjpaw_psl.1.0.0.UPF
     MD5 check sum: 5d2aebdfa2cae82b50a7e79e9516da0f
     Pseudo is Projector augmented-wave + core cor, Zval =  4.0
     Generated using "atomic" code by A. Dal Corso v.5.1
     Shape of augmentation charge: PSQ
     Using radial grid of 1073 points,  4 beta functions with: 
                l(1) =   0
                l(2) =   0
                l(3) =   1
                l(4) =   1
     Q(r) pseudized with 0 coefficients 


     atomic species   valence    mass     pseudopotential
        C              4.00    12.01000     C ( 1.00)

     24 Sym. Ops., with inversion, found



   Cartesian axes

     site n.     atom                  positions (alat units)
         1           C   tau(   1) = (   0.5000000   0.2886751   0.0000000  )
         2           C   tau(   2) = (   0.0000000   0.5773503   0.0000000  )

     number of k points=  2352  Methfessel-Paxton smearing, width (Ry)=  0.1000

     Number of k-points >= 100: set verbosity='high' to print them.

     Dense  grid:   260875 G-vectors     FFT dimensions: (  32,  32, 600)

     Estimated max dynamical RAM per process >     135.65 MB

     Estimated total dynamical RAM >     271.31 MB

     The potential is recalculated from file :
     ./outdir/_ph0/graphene.save/charge-density


     negative rho (up, down):  8.832E-05 0.000E+00
     Starting wfcs are    8 atomic +    2 random wfcs
     Checking if some PAW data can be deallocated... 

     Band Structure Calculation
     Davidson diagonalization with overlap
     c_bands:  1 eigenvalues not converged
     c_bands:  1 eigenvalues not converged
     c_bands:  1 eigenvalues not converged
     c_bands:  1 eigenvalues not converged
     c_bands:  1 eigenvalues not converged
     c_bands:  1 eigenvalues not converged
     c_bands:  1 eigenvalues not converged
     c_bands:  1 eigenvalues not converged
     c_bands:  1 eigenvalues not converged
     c_bands:  1 eigenvalues not converged
     c_bands:  1 eigenvalues not converged
     c_bands:  1 eigenvalues not converged
     c_bands:  1 eigenvalues not converged
     c_bands:  1 eigenvalues not converged
     c_bands:  1 eigenvalues not converged
     c_bands:  1 eigenvalues not converged
     c_bands:  1 eigenvalues not converged
     c_bands:  1 eigenvalues not converged
     c_bands:  1 eigenvalues not converged
     c_bands:  1 eigenvalues not converged
     c_bands:  1 eigenvalues not converged
     c_bands:  1 eigenvalues not converged
     c_bands:  1 eigenvalues not converged
     c_bands:  1 eigenvalues not converged
     c_bands:  1 eigenvalues not converged
     c_bands:  1 eigenvalues not converged
     c_bands:  1 eigenvalues not converged
     c_bands:  1 eigenvalues not converged
     c_bands:  1 eigenvalues not converged
     c_bands:  1 eigenvalues not converged
     c_bands:  1 eigenvalues not converged
     c_bands:  1 eigenvalues not converged
     c_bands:  1 eigenvalues not converged
     c_bands:  1 eigenvalues not converged
     c_bands:  1 eigenvalues not converged
     c_bands:  1 eigenvalues not converged
     c_bands:  1 eigenvalues not converged
     c_bands:  1 eigenvalues not converged
     c_bands:  1 eigenvalues not converged
     c_bands:  1 eigenvalues not converged
     c_bands:  1 eigenvalues not converged
     c_bands:  1 eigenvalues not converged
     c_bands:  1 eigenvalues not converged

     ethr =  1.25E-10,  avg # of iterations = 70.8

     total cpu time spent up to now is    30405.5 secs

     End of band structure calculation

     Number of k-points >= 100: set verbosity='high' to print the bands.

     the Fermi energy is    -3.4346 ev

     Writing output data file ./outdir/_ph0/graphene.save/

     Phonon Dispersion of graphene                                              

     bravais-lattice index     =            4
     lattice parameter (alat)  =       4.6980  a.u.
     unit-cell volume          =    1671.6911 (a.u.)^3
     number of atoms/cell      =            2
     number of atomic types    =            1
     kinetic-energy cut-off    =     110.0000  Ry
     charge density cut-off    =     440.0000  Ry
     convergence threshold     =      1.0E-12
     beta                      =       0.7000
     number of iterations used =            4
     Exchange-correlation= PBE
                           (   1   4   3   4   0   0   0)


     celldm(1)=    4.69800  celldm(2)=    0.00000  celldm(3)=   18.61600
     celldm(4)=    0.00000  celldm(5)=    0.00000  celldm(6)=    0.00000

     crystal axes: (cart. coord. in units of alat)
               a(1) = (  1.0000  0.0000  0.0000 )  
               a(2) = ( -0.5000  0.8660  0.0000 )  
               a(3) = (  0.0000  0.0000 18.6160 )  

     reciprocal axes: (cart. coord. in units 2 pi/alat)
               b(1) = (  1.0000  0.5774  0.0000 )  
               b(2) = (  0.0000  1.1547  0.0000 )  
               b(3) = (  0.0000  0.0000  0.0537 )  


     Atoms inside the unit cell: 

     Cartesian axes

     site n.  atom      mass           positions (alat units)
        1     C   12.0100   tau(    1) = (    0.50000    0.28868    0.00000  )
        2     C   12.0100   tau(    2) = (    0.00000    0.57735    0.00000  )

     Computing dynamical matrix for 
                    q = (   0.0000000   0.1924501   0.0000000 )
 
      4 Sym.Ops. (no q -> -q+G )


     G cutoff =  245.9909  ( 130459 G-vectors)     FFT grid: ( 32, 32,600)

     number of k points=  2352  Methfessel-Paxton smearing, width (Ry)=  0.1000

     PseudoPot. # 1 for C  read from file:
     /home/ubuntu/quantum_espresso_2019/SSSP_efficiency_pseudos/C.pbe-n-kjpaw_psl.1.0.0.UPF
     MD5 check sum: 5d2aebdfa2cae82b50a7e79e9516da0f
     Pseudo is Projector augmented-wave + core cor, Zval =  4.0
     Generated using "atomic" code by A. Dal Corso v.5.1
     Shape of augmentation charge: PSQ
     Using radial grid of 1073 points,  4 beta functions with: 
                l(1) =   0
                l(2) =   0
                l(3) =   1
                l(4) =   1
     Q(r) pseudized with 0 coefficients 


     Mode symmetry, C_2v (mm2)  point group:


     Atomic displacements:
     There are   6 irreducible representations

     Representation     1      1 modes -A_1  D_1  S_1  To be done

     Representation     2      1 modes -A_1  D_1  S_1  To be done

     Representation     3      1 modes -B_1  D_3  S_3  To be done

     Representation     4      1 modes -B_1  D_3  S_3  To be done

     Representation     5      1 modes -B_2  D_4  S_4  To be done

     Representation     6      1 modes -B_2  D_4  S_4  To be done



     Alpha used in Ewald sum =   2.8000

     negative rho (up, down):  8.832E-05 0.000E+00
     PHONON       :     21h22m CPU   1d 4h17m WALL



     Representation #  1 mode #   1

     Self-consistent Calculation

      iter #   1 total cpu time :103273.9 secs   av.it.:   5.6
      thresh= 1.000E-02 alpha_mix =  0.700 |ddv_scf|^2 =  2.619E-06

      iter #   2 total cpu time :105335.8 secs   av.it.:  10.1
      thresh= 1.618E-04 alpha_mix =  0.700 |ddv_scf|^2 =  1.498E-05

      iter #   3 total cpu time :107230.3 secs   av.it.:   8.8
      thresh= 3.870E-04 alpha_mix =  0.700 |ddv_scf|^2 =  2.525E-09

      iter #   4 total cpu time :109308.3 secs   av.it.:  10.9
      thresh= 5.025E-06 alpha_mix =  0.700 |ddv_scf|^2 =  1.115E-09

      iter #   5 total cpu time :111358.1 secs   av.it.:  10.6
      thresh= 3.339E-06 alpha_mix =  0.700 |ddv_scf|^2 =  2.103E-11

      iter #   6 total cpu time :113417.4 secs   av.it.:  10.7
      thresh= 4.586E-07 alpha_mix =  0.700 |ddv_scf|^2 =  1.177E-12

      iter #   7 total cpu time :115342.9 secs   av.it.:   9.4
      thresh= 1.085E-07 alpha_mix =  0.700 |ddv_scf|^2 =  1.511E-14

     End of self-consistent calculation

     Convergence has been achieved 


     Representation #  2 mode #   2

     Self-consistent Calculation

      iter #   1 total cpu time :117284.0 secs   av.it.:   5.6
      thresh= 1.000E-02 alpha_mix =  0.700 |ddv_scf|^2 =  2.619E-06

      iter #   2 total cpu time :119341.2 secs   av.it.:  10.1
      thresh= 1.618E-04 alpha_mix =  0.700 |ddv_scf|^2 =  1.498E-05

      iter #   3 total cpu time :121254.8 secs   av.it.:   8.8
      thresh= 3.870E-04 alpha_mix =  0.700 |ddv_scf|^2 =  2.525E-09

      iter #   4 total cpu time :123352.5 secs   av.it.:  10.9
      thresh= 5.025E-06 alpha_mix =  0.700 |ddv_scf|^2 =  1.115E-09

      iter #   5 total cpu time :125367.7 secs   av.it.:  10.6
      thresh= 3.339E-06 alpha_mix =  0.700 |ddv_scf|^2 =  2.103E-11

      iter #   6 total cpu time :127426.4 secs   av.it.:  10.7
      thresh= 4.586E-07 alpha_mix =  0.700 |ddv_scf|^2 =  1.177E-12

      iter #   7 total cpu time :129320.1 secs   av.it.:   9.4
      thresh= 1.085E-07 alpha_mix =  0.700 |ddv_scf|^2 =  1.514E-14

     End of self-consistent calculation

     Convergence has been achieved 


     Representation #  3 mode #   3

     Self-consistent Calculation

      iter #   1 total cpu time :131169.2 secs   av.it.:   5.0
      thresh= 1.000E-02 alpha_mix =  0.700 |ddv_scf|^2 =  3.520E-08

      iter #   2 total cpu time :133222.0 secs   av.it.:  10.0
      thresh= 1.876E-05 alpha_mix =  0.700 |ddv_scf|^2 =  2.665E-09

      iter #   3 total cpu time :135131.2 secs   av.it.:   8.7
      thresh= 5.162E-06 alpha_mix =  0.700 |ddv_scf|^2 =  1.909E-11

      iter #   4 total cpu time :137009.5 secs   av.it.:   9.1
      thresh= 4.369E-07 alpha_mix =  0.700 |ddv_scf|^2 =  1.294E-13

     End of self-consistent calculation

     Convergence has been achieved 


     Representation #  4 mode #   4

     Self-consistent Calculation

      iter #   1 total cpu time :138877.5 secs   av.it.:   5.0
      thresh= 1.000E-02 alpha_mix =  0.700 |ddv_scf|^2 =  3.520E-08

      iter #   2 total cpu time :140870.4 secs   av.it.:  10.0
      thresh= 1.876E-05 alpha_mix =  0.700 |ddv_scf|^2 =  2.665E-09

      iter #   3 total cpu time :142769.2 secs   av.it.:   8.7
      thresh= 5.162E-06 alpha_mix =  0.700 |ddv_scf|^2 =  1.909E-11

      iter #   4 total cpu time :144661.2 secs   av.it.:   9.1
      thresh= 4.369E-07 alpha_mix =  0.700 |ddv_scf|^2 =  1.294E-13

     End of self-consistent calculation

     Convergence has been achieved 


     Representation #  5 mode #   5

     Self-consistent Calculation

      iter #   1 total cpu time :146566.9 secs   av.it.:   5.5
      thresh= 1.000E-02 alpha_mix =  0.700 |ddv_scf|^2 =  3.509E-07

      iter #   2 total cpu time :148590.7 secs   av.it.:  10.2
      thresh= 5.924E-05 alpha_mix =  0.700 |ddv_scf|^2 =  1.084E-07

      iter #   3 total cpu time :150622.4 secs   av.it.:   9.7
      thresh= 3.292E-05 alpha_mix =  0.700 |ddv_scf|^2 =  1.305E-09

      iter #   4 total cpu time :152517.7 secs   av.it.:   9.1
      thresh= 3.613E-06 alpha_mix =  0.700 |ddv_scf|^2 =  1.390E-12

      iter #   5 total cpu time :154455.1 secs   av.it.:   9.6
      thresh= 1.179E-07 alpha_mix =  0.700 |ddv_scf|^2 =  4.872E-14

     End of self-consistent calculation

     Convergence has been achieved 


     Representation #  6 mode #   6

     Self-consistent Calculation

      iter #   1 total cpu time :156381.6 secs   av.it.:   5.5
      thresh= 1.000E-02 alpha_mix =  0.700 |ddv_scf|^2 =  3.509E-07

      iter #   2 total cpu time :158417.4 secs   av.it.:  10.2
      thresh= 5.924E-05 alpha_mix =  0.700 |ddv_scf|^2 =  1.084E-07

      iter #   3 total cpu time :160450.1 secs   av.it.:   9.7
      thresh= 3.292E-05 alpha_mix =  0.700 |ddv_scf|^2 =  1.305E-09

      iter #   4 total cpu time :162346.6 secs   av.it.:   9.1
      thresh= 3.613E-06 alpha_mix =  0.700 |ddv_scf|^2 =  1.390E-12

      iter #   5 total cpu time :164300.7 secs   av.it.:   9.6
      thresh= 1.179E-07 alpha_mix =  0.700 |ddv_scf|^2 =  4.863E-14

     End of self-consistent calculation

     Convergence has been achieved 
 
     Number of q in the star =    6
     List of q in the star:
          1   0.000000000   0.192450090   0.000000000
          2   0.000000000  -0.192450090   0.000000000
          3  -0.166666667   0.096225045   0.000000000
          4  -0.166666667  -0.096225045   0.000000000
          5   0.166666667  -0.096225045   0.000000000
          6   0.166666667   0.096225045   0.000000000

     Diagonalizing the dynamical matrix

     q = (    0.000000000   0.192450090   0.000000000 ) 

 **************************************************************************
     freq (    1) =       3.025468 [THz] =     100.918746 [cm-1]
     freq (    2) =       9.951241 [THz] =     331.937660 [cm-1]
     freq (    3) =      15.958684 [THz] =     532.324401 [cm-1]
     freq (    4) =      25.754466 [THz] =     859.076503 [cm-1]
     freq (    5) =      43.800284 [THz] =    1461.020220 [cm-1]
     freq (    6) =      46.674982 [THz] =    1556.909827 [cm-1]
 **************************************************************************

     Mode symmetry, C_2v (mm2)  point group:

     freq (  1 -  1) =        100.9  [cm-1]   --> B_2  D_4  S_4      
     freq (  2 -  2) =        331.9  [cm-1]   --> B_1  D_3  S_3      
     freq (  3 -  3) =        532.3  [cm-1]   --> A_1  D_1  S_1      
     freq (  4 -  4) =        859.1  [cm-1]   --> B_2  D_4  S_4      
     freq (  5 -  5) =       1461.0  [cm-1]   --> B_1  D_3  S_3      
     freq (  6 -  6) =       1556.9  [cm-1]   --> A_1  D_1  S_1      

     Calculation of q =    0.0000000   0.2886751   0.0000000
 
     Parallelization info
     --------------------
     sticks:   dense  smooth     PW     G-vecs:    dense   smooth      PW
     Min         336     336    105               130416   130416   22796
     Max         337     337    106               130459   130459   22813
     Sum         673     673    211               260875   260875   45609
 

     Title: 
     Phonon Dispersion of graphene                                              


     bravais-lattice index     =            4
     lattice parameter (alat)  =       4.6980  a.u.
     unit-cell volume          =    1671.6911 (a.u.)^3
     number of atoms/cell      =            2
     number of atomic types    =            1
     number of electrons       =         8.00
     number of Kohn-Sham states=           10
     kinetic-energy cutoff     =     110.0000  Ry
     charge density cutoff     =     440.0000  Ry
     Exchange-correlation= PBE
                           (   1   4   3   4   0   0   0)

     celldm(1)=   4.698000  celldm(2)=   0.000000  celldm(3)=  18.616000
     celldm(4)=   0.000000  celldm(5)=   0.000000  celldm(6)=   0.000000

     crystal axes: (cart. coord. in units of alat)
               a(1) = (   1.000000   0.000000   0.000000 )  
               a(2) = (  -0.500000   0.866025   0.000000 )  
               a(3) = (   0.000000   0.000000  18.616000 )  

     reciprocal axes: (cart. coord. in units 2 pi/alat)
               b(1) = (  1.000000  0.577350  0.000000 )  
               b(2) = (  0.000000  1.154701  0.000000 )  
               b(3) = (  0.000000  0.000000  0.053717 )  


     PseudoPot. # 1 for C  read from file:
     /home/ubuntu/quantum_espresso_2019/SSSP_efficiency_pseudos/C.pbe-n-kjpaw_psl.1.0.0.UPF
     MD5 check sum: 5d2aebdfa2cae82b50a7e79e9516da0f
     Pseudo is Projector augmented-wave + core cor, Zval =  4.0
     Generated using "atomic" code by A. Dal Corso v.5.1
     Shape of augmentation charge: PSQ
     Using radial grid of 1073 points,  4 beta functions with: 
                l(1) =   0
                l(2) =   0
                l(3) =   1
                l(4) =   1
     Q(r) pseudized with 0 coefficients 


     atomic species   valence    mass     pseudopotential
        C              4.00    12.01000     C ( 1.00)

     24 Sym. Ops., with inversion, found



   Cartesian axes

     site n.     atom                  positions (alat units)
         1           C   tau(   1) = (   0.5000000   0.2886751   0.0000000  )
         2           C   tau(   2) = (   0.0000000   0.5773503   0.0000000  )

     number of k points=  2352  Methfessel-Paxton smearing, width (Ry)=  0.1000

     Number of k-points >= 100: set verbosity='high' to print them.

     Dense  grid:   260875 G-vectors     FFT dimensions: (  32,  32, 600)

     Estimated max dynamical RAM per process >     135.66 MB

     Estimated total dynamical RAM >     271.31 MB

     The potential is recalculated from file :
     ./outdir/_ph0/graphene.save/charge-density


     negative rho (up, down):  8.832E-05 0.000E+00
     Starting wfcs are    8 atomic +    2 random wfcs
     Checking if some PAW data can be deallocated... 

     Band Structure Calculation
     Davidson diagonalization with overlap
     c_bands:  1 eigenvalues not converged
     c_bands:  1 eigenvalues not converged
     c_bands:  1 eigenvalues not converged
     c_bands:  1 eigenvalues not converged
     c_bands:  1 eigenvalues not converged
     c_bands:  1 eigenvalues not converged
     c_bands:  1 eigenvalues not converged
     c_bands:  1 eigenvalues not converged
     c_bands:  1 eigenvalues not converged
     c_bands:  1 eigenvalues not converged
     c_bands:  1 eigenvalues not converged
     c_bands:  1 eigenvalues not converged
     c_bands:  1 eigenvalues not converged
     c_bands:  1 eigenvalues not converged
     c_bands:  1 eigenvalues not converged
     c_bands:  1 eigenvalues not converged
     c_bands:  1 eigenvalues not converged
     c_bands:  1 eigenvalues not converged
     c_bands:  1 eigenvalues not converged
     c_bands:  1 eigenvalues not converged
     c_bands:  1 eigenvalues not converged
     c_bands:  1 eigenvalues not converged
     c_bands:  1 eigenvalues not converged
     c_bands:  1 eigenvalues not converged
     c_bands:  1 eigenvalues not converged
     c_bands:  1 eigenvalues not converged
     c_bands:  1 eigenvalues not converged
     c_bands:  1 eigenvalues not converged
     c_bands:  1 eigenvalues not converged
     c_bands:  1 eigenvalues not converged
     c_bands:  1 eigenvalues not converged
     c_bands:  1 eigenvalues not converged
     c_bands:  1 eigenvalues not converged
     c_bands:  1 eigenvalues not converged
     c_bands:  1 eigenvalues not converged
     c_bands:  1 eigenvalues not converged
     c_bands:  1 eigenvalues not converged
     c_bands:  1 eigenvalues not converged
     c_bands:  1 eigenvalues not converged
     c_bands:  1 eigenvalues not converged
     c_bands:  1 eigenvalues not converged
     c_bands:  1 eigenvalues not converged
     c_bands:  1 eigenvalues not converged
     c_bands:  1 eigenvalues not converged
     c_bands:  1 eigenvalues not converged
     c_bands:  1 eigenvalues not converged
     c_bands:  1 eigenvalues not converged

     ethr =  1.25E-10,  avg # of iterations = 71.0

     total cpu time spent up to now is    45685.6 secs

     End of band structure calculation

     Number of k-points >= 100: set verbosity='high' to print the bands.

     the Fermi energy is    -3.4346 ev

     Writing output data file ./outdir/_ph0/graphene.save/

     Phonon Dispersion of graphene                                              

     bravais-lattice index     =            4
     lattice parameter (alat)  =       4.6980  a.u.
     unit-cell volume          =    1671.6911 (a.u.)^3
     number of atoms/cell      =            2
     number of atomic types    =            1
     kinetic-energy cut-off    =     110.0000  Ry
     charge density cut-off    =     440.0000  Ry
     convergence threshold     =      1.0E-12
     beta                      =       0.7000
     number of iterations used =            4
     Exchange-correlation= PBE
                           (   1   4   3   4   0   0   0)


     celldm(1)=    4.69800  celldm(2)=    0.00000  celldm(3)=   18.61600
     celldm(4)=    0.00000  celldm(5)=    0.00000  celldm(6)=    0.00000

     crystal axes: (cart. coord. in units of alat)
               a(1) = (  1.0000  0.0000  0.0000 )  
               a(2) = ( -0.5000  0.8660  0.0000 )  
               a(3) = (  0.0000  0.0000 18.6160 )  

     reciprocal axes: (cart. coord. in units 2 pi/alat)
               b(1) = (  1.0000  0.5774  0.0000 )  
               b(2) = (  0.0000  1.1547  0.0000 )  
               b(3) = (  0.0000  0.0000  0.0537 )  


     Atoms inside the unit cell: 

     Cartesian axes

     site n.  atom      mass           positions (alat units)
        1     C   12.0100   tau(    1) = (    0.50000    0.28868    0.00000  )
        2     C   12.0100   tau(    2) = (    0.00000    0.57735    0.00000  )

     Computing dynamical matrix for 
                    q = (   0.0000000   0.2886751   0.0000000 )
 
      4 Sym.Ops. (no q -> -q+G )


     G cutoff =  245.9909  ( 130459 G-vectors)     FFT grid: ( 32, 32,600)

     number of k points=  2352  Methfessel-Paxton smearing, width (Ry)=  0.1000

     PseudoPot. # 1 for C  read from file:
     /home/ubuntu/quantum_espresso_2019/SSSP_efficiency_pseudos/C.pbe-n-kjpaw_psl.1.0.0.UPF
     MD5 check sum: 5d2aebdfa2cae82b50a7e79e9516da0f
     Pseudo is Projector augmented-wave + core cor, Zval =  4.0
     Generated using "atomic" code by A. Dal Corso v.5.1
     Shape of augmentation charge: PSQ
     Using radial grid of 1073 points,  4 beta functions with: 
                l(1) =   0
                l(2) =   0
                l(3) =   1
                l(4) =   1
     Q(r) pseudized with 0 coefficients 


     Mode symmetry, C_2v (mm2)  point group:


     Atomic displacements:
     There are   6 irreducible representations

     Representation     1      1 modes -A_1  D_1  S_1  To be done

     Representation     2      1 modes -A_1  D_1  S_1  To be done

     Representation     3      1 modes -B_1  D_3  S_3  To be done

     Representation     4      1 modes -B_1  D_3  S_3  To be done

     Representation     5      1 modes -B_2  D_4  S_4  To be done

     Representation     6      1 modes -B_2  D_4  S_4  To be done



     Alpha used in Ewald sum =   2.8000

     negative rho (up, down):  8.832E-05 0.000E+00
     PHONON       :   1d13h19m CPU   2d 2h22m WALL



     Representation #  1 mode #   1

     Self-consistent Calculation

      iter #   1 total cpu time :182771.7 secs   av.it.:   5.7
      thresh= 1.000E-02 alpha_mix =  0.700 |ddv_scf|^2 =  1.197E-06

      iter #   2 total cpu time :184894.7 secs   av.it.:  10.5
      thresh= 1.094E-04 alpha_mix =  0.700 |ddv_scf|^2 =  4.784E-06

      iter #   3 total cpu time :186869.3 secs   av.it.:   9.3
      thresh= 2.187E-04 alpha_mix =  0.700 |ddv_scf|^2 =  4.171E-09

      iter #   4 total cpu time :188997.8 secs   av.it.:  10.9
      thresh= 6.458E-06 alpha_mix =  0.700 |ddv_scf|^2 =  1.494E-09

      iter #   5 total cpu time :191091.1 secs   av.it.:  10.6
      thresh= 3.866E-06 alpha_mix =  0.700 |ddv_scf|^2 =  1.932E-11

      iter #   6 total cpu time :193169.5 secs   av.it.:  10.8
      thresh= 4.396E-07 alpha_mix =  0.700 |ddv_scf|^2 =  5.823E-13

     End of self-consistent calculation

     Convergence has been achieved 


     Representation #  2 mode #   2

     Self-consistent Calculation

      iter #   1 total cpu time :195186.7 secs   av.it.:   5.7
      thresh= 1.000E-02 alpha_mix =  0.700 |ddv_scf|^2 =  1.197E-06

      iter #   2 total cpu time :197249.7 secs   av.it.:  10.5
      thresh= 1.094E-04 alpha_mix =  0.700 |ddv_scf|^2 =  4.784E-06

      iter #   3 total cpu time :199209.4 secs   av.it.:   9.3
      thresh= 2.187E-04 alpha_mix =  0.700 |ddv_scf|^2 =  4.171E-09

      iter #   4 total cpu time :201309.7 secs   av.it.:  10.9
      thresh= 6.458E-06 alpha_mix =  0.700 |ddv_scf|^2 =  1.494E-09

      iter #   5 total cpu time :203376.4 secs   av.it.:  10.6
      thresh= 3.866E-06 alpha_mix =  0.700 |ddv_scf|^2 =  1.932E-11

      iter #   6 total cpu time :205433.8 secs   av.it.:  10.8
      thresh= 4.396E-07 alpha_mix =  0.700 |ddv_scf|^2 =  5.822E-13

     End of self-consistent calculation

     Convergence has been achieved 


     Representation #  3 mode #   3

     Self-consistent Calculation

      iter #   1 total cpu time :207261.0 secs   av.it.:   5.0
      thresh= 1.000E-02 alpha_mix =  0.700 |ddv_scf|^2 =  3.792E-08

      iter #   2 total cpu time :209265.1 secs   av.it.:  10.0
      thresh= 1.947E-05 alpha_mix =  0.700 |ddv_scf|^2 =  2.806E-09

      iter #   3 total cpu time :211175.6 secs   av.it.:   8.9
      thresh= 5.297E-06 alpha_mix =  0.700 |ddv_scf|^2 =  3.050E-11

      iter #   4 total cpu time :213102.7 secs   av.it.:   9.3
      thresh= 5.523E-07 alpha_mix =  0.700 |ddv_scf|^2 =  1.441E-13

     End of self-consistent calculation

     Convergence has been achieved 


     Representation #  4 mode #   4

     Self-consistent Calculation

      iter #   1 total cpu time :214938.1 secs   av.it.:   5.0
      thresh= 1.000E-02 alpha_mix =  0.700 |ddv_scf|^2 =  3.792E-08

      iter #   2 total cpu time :216912.7 secs   av.it.:  10.0
      thresh= 1.947E-05 alpha_mix =  0.700 |ddv_scf|^2 =  2.806E-09

      iter #   3 total cpu time :218801.7 secs   av.it.:   8.9
      thresh= 5.297E-06 alpha_mix =  0.700 |ddv_scf|^2 =  3.050E-11

      iter #   4 total cpu time :220722.2 secs   av.it.:   9.3
      thresh= 5.523E-07 alpha_mix =  0.700 |ddv_scf|^2 =  1.441E-13

     End of self-consistent calculation

     Convergence has been achieved 


     Representation #  5 mode #   5

     Self-consistent Calculation

      iter #   1 total cpu time :222582.8 secs   av.it.:   5.4
      thresh= 1.000E-02 alpha_mix =  0.700 |ddv_scf|^2 =  1.522E-07

      iter #   2 total cpu time :224608.8 secs   av.it.:  10.3
      thresh= 3.902E-05 alpha_mix =  0.700 |ddv_scf|^2 =  1.979E-08

      iter #   3 total cpu time :226661.0 secs   av.it.:  10.2
      thresh= 1.407E-05 alpha_mix =  0.700 |ddv_scf|^2 =  1.034E-09

      iter #   4 total cpu time :228610.3 secs   av.it.:   9.6
      thresh= 3.216E-06 alpha_mix =  0.700 |ddv_scf|^2 =  5.262E-13

     End of self-consistent calculation

     Convergence has been achieved 


     Representation #  6 mode #   6

     Self-consistent Calculation

      iter #   1 total cpu time :230479.4 secs   av.it.:   5.4
      thresh= 1.000E-02 alpha_mix =  0.700 |ddv_scf|^2 =  1.522E-07

      iter #   2 total cpu time :232513.9 secs   av.it.:  10.3
      thresh= 3.902E-05 alpha_mix =  0.700 |ddv_scf|^2 =  1.979E-08

      iter #   3 total cpu time :234570.8 secs   av.it.:  10.2
      thresh= 1.407E-05 alpha_mix =  0.700 |ddv_scf|^2 =  1.034E-09

      iter #   4 total cpu time :236514.3 secs   av.it.:   9.6
      thresh= 3.216E-06 alpha_mix =  0.700 |ddv_scf|^2 =  5.262E-13

     End of self-consistent calculation

     Convergence has been achieved 
 
     Number of q in the star =    6
     List of q in the star:
          1   0.000000000   0.288675135   0.000000000
          2   0.000000000  -0.288675135   0.000000000
          3  -0.250000000   0.144337567   0.000000000
          4  -0.250000000  -0.144337567   0.000000000
          5   0.250000000  -0.144337567   0.000000000
          6   0.250000000   0.144337567   0.000000000

     Diagonalizing the dynamical matrix

     q = (    0.000000000   0.288675135   0.000000000 ) 

 **************************************************************************
     freq (    1) =       5.884173 [THz] =     196.274898 [cm-1]
     freq (    2) =      13.761879 [THz] =     459.046874 [cm-1]
     freq (    3) =      22.810940 [THz] =     760.891054 [cm-1]
     freq (    4) =      24.932967 [THz] =     831.674250 [cm-1]
     freq (    5) =      42.526579 [THz] =    1418.533984 [cm-1]
     freq (    6) =      46.316852 [THz] =    1544.963895 [cm-1]
 **************************************************************************

     Mode symmetry, C_2v (mm2)  point group:

     freq (  1 -  1) =        196.3  [cm-1]   --> B_2  D_4  S_4      
     freq (  2 -  2) =        459.0  [cm-1]   --> B_1  D_3  S_3      
     freq (  3 -  3) =        760.9  [cm-1]   --> A_1  D_1  S_1      
     freq (  4 -  4) =        831.7  [cm-1]   --> B_2  D_4  S_4      
     freq (  5 -  5) =       1418.5  [cm-1]   --> B_1  D_3  S_3      
     freq (  6 -  6) =       1545.0  [cm-1]   --> A_1  D_1  S_1      

     Calculation of q =    0.0000000   0.3849002   0.0000000
 
     Parallelization info
     --------------------
     sticks:   dense  smooth     PW     G-vecs:    dense   smooth      PW
     Min         336     336    105               130416   130416   23449
     Max         337     337    106               130459   130459   23470
     Sum         673     673    211               260875   260875   46919
 

     Title: 
     Phonon Dispersion of graphene                                              


     bravais-lattice index     =            4
     lattice parameter (alat)  =       4.6980  a.u.
     unit-cell volume          =    1671.6911 (a.u.)^3
     number of atoms/cell      =            2
     number of atomic types    =            1
     number of electrons       =         8.00
     number of Kohn-Sham states=           10
     kinetic-energy cutoff     =     110.0000  Ry
     charge density cutoff     =     440.0000  Ry
     Exchange-correlation= PBE
                           (   1   4   3   4   0   0   0)

     celldm(1)=   4.698000  celldm(2)=   0.000000  celldm(3)=  18.616000
     celldm(4)=   0.000000  celldm(5)=   0.000000  celldm(6)=   0.000000

     crystal axes: (cart. coord. in units of alat)
               a(1) = (   1.000000   0.000000   0.000000 )  
               a(2) = (  -0.500000   0.866025   0.000000 )  
               a(3) = (   0.000000   0.000000  18.616000 )  

     reciprocal axes: (cart. coord. in units 2 pi/alat)
               b(1) = (  1.000000  0.577350  0.000000 )  
               b(2) = (  0.000000  1.154701  0.000000 )  
               b(3) = (  0.000000  0.000000  0.053717 )  


     PseudoPot. # 1 for C  read from file:
     /home/ubuntu/quantum_espresso_2019/SSSP_efficiency_pseudos/C.pbe-n-kjpaw_psl.1.0.0.UPF
     MD5 check sum: 5d2aebdfa2cae82b50a7e79e9516da0f
     Pseudo is Projector augmented-wave + core cor, Zval =  4.0
     Generated using "atomic" code by A. Dal Corso v.5.1
     Shape of augmentation charge: PSQ
     Using radial grid of 1073 points,  4 beta functions with: 
                l(1) =   0
                l(2) =   0
                l(3) =   1
                l(4) =   1
     Q(r) pseudized with 0 coefficients 


     atomic species   valence    mass     pseudopotential
        C              4.00    12.01000     C ( 1.00)

     24 Sym. Ops., with inversion, found



   Cartesian axes

     site n.     atom                  positions (alat units)
         1           C   tau(   1) = (   0.5000000   0.2886751   0.0000000  )
         2           C   tau(   2) = (   0.0000000   0.5773503   0.0000000  )

     number of k points=  2352  Methfessel-Paxton smearing, width (Ry)=  0.1000

     Number of k-points >= 100: set verbosity='high' to print them.

     Dense  grid:   260875 G-vectors     FFT dimensions: (  32,  32, 600)

     Estimated max dynamical RAM per process >     135.66 MB

     Estimated total dynamical RAM >     271.32 MB

     The potential is recalculated from file :
     ./outdir/_ph0/graphene.save/charge-density


     negative rho (up, down):  8.832E-05 0.000E+00
     Starting wfcs are    8 atomic +    2 random wfcs
     Checking if some PAW data can be deallocated... 

     Band Structure Calculation
     Davidson diagonalization with overlap
     c_bands:  1 eigenvalues not converged
     c_bands:  1 eigenvalues not converged
     c_bands:  1 eigenvalues not converged
     c_bands:  1 eigenvalues not converged
     c_bands:  1 eigenvalues not converged
     c_bands:  1 eigenvalues not converged
     c_bands:  1 eigenvalues not converged
     c_bands:  1 eigenvalues not converged
     c_bands:  1 eigenvalues not converged
     c_bands:  1 eigenvalues not converged
     c_bands:  1 eigenvalues not converged
     c_bands:  1 eigenvalues not converged
     c_bands:  1 eigenvalues not converged
     c_bands:  1 eigenvalues not converged
     c_bands:  1 eigenvalues not converged
     c_bands:  1 eigenvalues not converged
     c_bands:  1 eigenvalues not converged
     c_bands:  1 eigenvalues not converged
     c_bands:  1 eigenvalues not converged
     c_bands:  1 eigenvalues not converged
     c_bands:  1 eigenvalues not converged
     c_bands:  1 eigenvalues not converged
     c_bands:  1 eigenvalues not converged
     c_bands:  1 eigenvalues not converged
     c_bands:  1 eigenvalues not converged
     c_bands:  1 eigenvalues not converged
     c_bands:  1 eigenvalues not converged
     c_bands:  1 eigenvalues not converged
     c_bands:  1 eigenvalues not converged
     c_bands:  1 eigenvalues not converged
     c_bands:  1 eigenvalues not converged
     c_bands:  1 eigenvalues not converged
     c_bands:  1 eigenvalues not converged
     c_bands:  1 eigenvalues not converged
     c_bands:  1 eigenvalues not converged
     c_bands:  1 eigenvalues not converged
     c_bands:  1 eigenvalues not converged
     c_bands:  1 eigenvalues not converged
     c_bands:  1 eigenvalues not converged
     c_bands:  1 eigenvalues not converged
     c_bands:  1 eigenvalues not converged

     ethr =  1.25E-10,  avg # of iterations = 70.9

     total cpu time spent up to now is    60949.3 secs

     End of band structure calculation

     Number of k-points >= 100: set verbosity='high' to print the bands.

     the Fermi energy is    -3.4346 ev

     Writing output data file ./outdir/_ph0/graphene.save/

     Phonon Dispersion of graphene                                              

     bravais-lattice index     =            4
     lattice parameter (alat)  =       4.6980  a.u.
     unit-cell volume          =    1671.6911 (a.u.)^3
     number of atoms/cell      =            2
     number of atomic types    =            1
     kinetic-energy cut-off    =     110.0000  Ry
     charge density cut-off    =     440.0000  Ry
     convergence threshold     =      1.0E-12
     beta                      =       0.7000
     number of iterations used =            4
     Exchange-correlation= PBE
                           (   1   4   3   4   0   0   0)


     celldm(1)=    4.69800  celldm(2)=    0.00000  celldm(3)=   18.61600
     celldm(4)=    0.00000  celldm(5)=    0.00000  celldm(6)=    0.00000

     crystal axes: (cart. coord. in units of alat)
               a(1) = (  1.0000  0.0000  0.0000 )  
               a(2) = ( -0.5000  0.8660  0.0000 )  
               a(3) = (  0.0000  0.0000 18.6160 )  

     reciprocal axes: (cart. coord. in units 2 pi/alat)
               b(1) = (  1.0000  0.5774  0.0000 )  
               b(2) = (  0.0000  1.1547  0.0000 )  
               b(3) = (  0.0000  0.0000  0.0537 )  


     Atoms inside the unit cell: 

     Cartesian axes

     site n.  atom      mass           positions (alat units)
        1     C   12.0100   tau(    1) = (    0.50000    0.28868    0.00000  )
        2     C   12.0100   tau(    2) = (    0.00000    0.57735    0.00000  )

     Computing dynamical matrix for 
                    q = (   0.0000000   0.3849002   0.0000000 )
 
      4 Sym.Ops. (no q -> -q+G )


     G cutoff =  245.9909  ( 130459 G-vectors)     FFT grid: ( 32, 32,600)

     number of k points=  2352  Methfessel-Paxton smearing, width (Ry)=  0.1000

     PseudoPot. # 1 for C  read from file:
     /home/ubuntu/quantum_espresso_2019/SSSP_efficiency_pseudos/C.pbe-n-kjpaw_psl.1.0.0.UPF
     MD5 check sum: 5d2aebdfa2cae82b50a7e79e9516da0f
     Pseudo is Projector augmented-wave + core cor, Zval =  4.0
     Generated using "atomic" code by A. Dal Corso v.5.1
     Shape of augmentation charge: PSQ
     Using radial grid of 1073 points,  4 beta functions with: 
                l(1) =   0
                l(2) =   0
                l(3) =   1
                l(4) =   1
     Q(r) pseudized with 0 coefficients 


     Mode symmetry, C_2v (mm2)  point group:


     Atomic displacements:
     There are   6 irreducible representations

     Representation     1      1 modes -A_1  D_1  S_1  To be done

     Representation     2      1 modes -A_1  D_1  S_1  To be done

     Representation     3      1 modes -B_1  D_3  S_3  To be done

     Representation     4      1 modes -B_1  D_3  S_3  To be done

     Representation     5      1 modes -B_2  D_4  S_4  To be done

     Representation     6      1 modes -B_2  D_4  S_4  To be done



     Alpha used in Ewald sum =   2.8000

     negative rho (up, down):  8.832E-05 0.000E+00
     PHONON       :   2d 3h59m CPU   2d22h26m WALL



     Representation #  1 mode #   1

     Self-consistent Calculation

      iter #   1 total cpu time :254972.9 secs   av.it.:   5.7
      thresh= 1.000E-02 alpha_mix =  0.700 |ddv_scf|^2 =  6.026E-07

      iter #   2 total cpu time :257038.3 secs   av.it.:  10.8
      thresh= 7.763E-05 alpha_mix =  0.700 |ddv_scf|^2 =  1.518E-06

      iter #   3 total cpu time :259050.1 secs   av.it.:   9.8
      thresh= 1.232E-04 alpha_mix =  0.700 |ddv_scf|^2 =  6.400E-09

      iter #   4 total cpu time :261127.2 secs   av.it.:  10.8
      thresh= 8.000E-06 alpha_mix =  0.700 |ddv_scf|^2 =  1.826E-09

      iter #   5 total cpu time :263155.3 secs   av.it.:  10.6
      thresh= 4.273E-06 alpha_mix =  0.700 |ddv_scf|^2 =  2.768E-11

      iter #   6 total cpu time :266325.5 secs   av.it.:  10.7
      thresh= 5.262E-07 alpha_mix =  0.700 |ddv_scf|^2 =  1.685E-13

     End of self-consistent calculation

     Convergence has been achieved 


     Representation #  2 mode #   2

     Self-consistent Calculation

      iter #   1 total cpu time :272423.6 secs   av.it.:   5.7
      thresh= 1.000E-02 alpha_mix =  0.700 |ddv_scf|^2 =  6.026E-07

      iter #   2 total cpu time :274588.5 secs   av.it.:  10.8
      thresh= 7.763E-05 alpha_mix =  0.700 |ddv_scf|^2 =  1.518E-06

      iter #   3 total cpu time :276562.0 secs   av.it.:   9.8
      thresh= 1.232E-04 alpha_mix =  0.700 |ddv_scf|^2 =  6.400E-09

      iter #   4 total cpu time :278708.4 secs   av.it.:  10.8
      thresh= 8.000E-06 alpha_mix =  0.700 |ddv_scf|^2 =  1.826E-09

      iter #   5 total cpu time :280750.9 secs   av.it.:  10.6
      thresh= 4.273E-06 alpha_mix =  0.700 |ddv_scf|^2 =  2.768E-11

      iter #   6 total cpu time :282797.0 secs   av.it.:  10.7
      thresh= 5.262E-07 alpha_mix =  0.700 |ddv_scf|^2 =  1.685E-13

     End of self-consistent calculation

     Convergence has been achieved 


     Representation #  3 mode #   3

     Self-consistent Calculation

      iter #   1 total cpu time :284577.5 secs   av.it.:   5.0
      thresh= 1.000E-02 alpha_mix =  0.700 |ddv_scf|^2 =  4.127E-08

      iter #   2 total cpu time :286562.5 secs   av.it.:  10.1
      thresh= 2.032E-05 alpha_mix =  0.700 |ddv_scf|^2 =  3.008E-09

      iter #   3 total cpu time :288466.3 secs   av.it.:   9.0
      thresh= 5.485E-06 alpha_mix =  0.700 |ddv_scf|^2 =  4.458E-11

      iter #   4 total cpu time :290423.8 secs   av.it.:   9.5
      thresh= 6.677E-07 alpha_mix =  0.700 |ddv_scf|^2 =  1.529E-13

     End of self-consistent calculation

     Convergence has been achieved 


     Representation #  4 mode #   4

     Self-consistent Calculation

      iter #   1 total cpu time :292208.1 secs   av.it.:   5.0
      thresh= 1.000E-02 alpha_mix =  0.700 |ddv_scf|^2 =  4.127E-08

      iter #   2 total cpu time :294206.7 secs   av.it.:  10.1
      thresh= 2.032E-05 alpha_mix =  0.700 |ddv_scf|^2 =  3.008E-09

      iter #   3 total cpu time :296119.8 secs   av.it.:   9.0
      thresh= 5.485E-06 alpha_mix =  0.700 |ddv_scf|^2 =  4.458E-11

      iter #   4 total cpu time :298059.9 secs   av.it.:   9.5
      thresh= 6.677E-07 alpha_mix =  0.700 |ddv_scf|^2 =  1.529E-13

     End of self-consistent calculation

     Convergence has been achieved 


     Representation #  5 mode #   5

     Self-consistent Calculation

      iter #   1 total cpu time :299889.0 secs   av.it.:   5.4
      thresh= 1.000E-02 alpha_mix =  0.700 |ddv_scf|^2 =  9.552E-08

      iter #   2 total cpu time :301923.4 secs   av.it.:  10.3
      thresh= 3.091E-05 alpha_mix =  0.700 |ddv_scf|^2 =  7.425E-09

      iter #   3 total cpu time :303976.5 secs   av.it.:  10.2
      thresh= 8.617E-06 alpha_mix =  0.700 |ddv_scf|^2 =  6.024E-10

      iter #   4 total cpu time :305963.4 secs   av.it.:   9.9
      thresh= 2.454E-06 alpha_mix =  0.700 |ddv_scf|^2 =  3.900E-13

     End of self-consistent calculation

     Convergence has been achieved 


     Representation #  6 mode #   6

     Self-consistent Calculation

      iter #   1 total cpu time :307767.9 secs   av.it.:   5.4
      thresh= 1.000E-02 alpha_mix =  0.700 |ddv_scf|^2 =  9.552E-08

      iter #   2 total cpu time :309787.5 secs   av.it.:  10.3
      thresh= 3.091E-05 alpha_mix =  0.700 |ddv_scf|^2 =  7.425E-09

      iter #   3 total cpu time :311838.0 secs   av.it.:  10.2
      thresh= 8.617E-06 alpha_mix =  0.700 |ddv_scf|^2 =  6.024E-10

      iter #   4 total cpu time :313826.1 secs   av.it.:   9.9
      thresh= 2.454E-06 alpha_mix =  0.700 |ddv_scf|^2 =  3.900E-13

     End of self-consistent calculation

     Convergence has been achieved 
 
     Number of q in the star =    6
     List of q in the star:
          1   0.000000000   0.384900179   0.000000000
          2   0.000000000  -0.384900179   0.000000000
          3  -0.333333333   0.192450090   0.000000000
          4  -0.333333333  -0.192450090   0.000000000
          5   0.333333333  -0.192450090   0.000000000
          6   0.333333333   0.192450090   0.000000000

     Diagonalizing the dynamical matrix

     q = (    0.000000000   0.384900179   0.000000000 ) 

 **************************************************************************
     freq (    1) =       8.900922 [THz] =     296.902801 [cm-1]
     freq (    2) =      16.499195 [THz] =     550.353904 [cm-1]
     freq (    3) =      23.397431 [THz] =     780.454292 [cm-1]
     freq (    4) =      29.267279 [THz] =     976.251348 [cm-1]
     freq (    5) =      41.322576 [THz] =    1378.372758 [cm-1]
     freq (    6) =      44.926571 [THz] =    1498.589107 [cm-1]
 **************************************************************************

     Mode symmetry, C_2v (mm2)  point group:

     freq (  1 -  1) =        296.9  [cm-1]   --> B_2  D_4  S_4      
     freq (  2 -  2) =        550.4  [cm-1]   --> B_1  D_3  S_3      
     freq (  3 -  3) =        780.5  [cm-1]   --> B_2  D_4  S_4      
     freq (  4 -  4) =        976.3  [cm-1]   --> A_1  D_1  S_1      
     freq (  5 -  5) =       1378.4  [cm-1]   --> B_1  D_3  S_3      
     freq (  6 -  6) =       1498.6  [cm-1]   --> A_1  D_1  S_1      

     Calculation of q =    0.0000000   0.4811252   0.0000000
 
     Parallelization info
     --------------------
     sticks:   dense  smooth     PW     G-vecs:    dense   smooth      PW
     Min         336     336    105               130416   130416   24059
     Max         337     337    106               130459   130459   24100
     Sum         673     673    211               260875   260875   48159
 

     Title: 
     Phonon Dispersion of graphene                                              


     bravais-lattice index     =            4
     lattice parameter (alat)  =       4.6980  a.u.
     unit-cell volume          =    1671.6911 (a.u.)^3
     number of atoms/cell      =            2
     number of atomic types    =            1
     number of electrons       =         8.00
     number of Kohn-Sham states=           10
     kinetic-energy cutoff     =     110.0000  Ry
     charge density cutoff     =     440.0000  Ry
     Exchange-correlation= PBE
                           (   1   4   3   4   0   0   0)

     celldm(1)=   4.698000  celldm(2)=   0.000000  celldm(3)=  18.616000
     celldm(4)=   0.000000  celldm(5)=   0.000000  celldm(6)=   0.000000

     crystal axes: (cart. coord. in units of alat)
               a(1) = (   1.000000   0.000000   0.000000 )  
               a(2) = (  -0.500000   0.866025   0.000000 )  
               a(3) = (   0.000000   0.000000  18.616000 )  

     reciprocal axes: (cart. coord. in units 2 pi/alat)
               b(1) = (  1.000000  0.577350  0.000000 )  
               b(2) = (  0.000000  1.154701  0.000000 )  
               b(3) = (  0.000000  0.000000  0.053717 )  


     PseudoPot. # 1 for C  read from file:
     /home/ubuntu/quantum_espresso_2019/SSSP_efficiency_pseudos/C.pbe-n-kjpaw_psl.1.0.0.UPF
     MD5 check sum: 5d2aebdfa2cae82b50a7e79e9516da0f
     Pseudo is Projector augmented-wave + core cor, Zval =  4.0
     Generated using "atomic" code by A. Dal Corso v.5.1
     Shape of augmentation charge: PSQ
     Using radial grid of 1073 points,  4 beta functions with: 
                l(1) =   0
                l(2) =   0
                l(3) =   1
                l(4) =   1
     Q(r) pseudized with 0 coefficients 


     atomic species   valence    mass     pseudopotential
        C              4.00    12.01000     C ( 1.00)

     24 Sym. Ops., with inversion, found



   Cartesian axes

     site n.     atom                  positions (alat units)
         1           C   tau(   1) = (   0.5000000   0.2886751   0.0000000  )
         2           C   tau(   2) = (   0.0000000   0.5773503   0.0000000  )

     number of k points=  2352  Methfessel-Paxton smearing, width (Ry)=  0.1000

     Number of k-points >= 100: set verbosity='high' to print them.

     Dense  grid:   260875 G-vectors     FFT dimensions: (  32,  32, 600)

     Estimated max dynamical RAM per process >     135.66 MB

     Estimated total dynamical RAM >     271.32 MB

     The potential is recalculated from file :
     ./outdir/_ph0/graphene.save/charge-density


     negative rho (up, down):  8.832E-05 0.000E+00
     Starting wfcs are    8 atomic +    2 random wfcs
     Checking if some PAW data can be deallocated... 

     Band Structure Calculation
     Davidson diagonalization with overlap
     c_bands:  1 eigenvalues not converged
     c_bands:  1 eigenvalues not converged
     c_bands:  1 eigenvalues not converged
     c_bands:  1 eigenvalues not converged
     c_bands:  1 eigenvalues not converged
     c_bands:  1 eigenvalues not converged
     c_bands:  1 eigenvalues not converged
     c_bands:  1 eigenvalues not converged
     c_bands:  1 eigenvalues not converged
     c_bands:  1 eigenvalues not converged
     c_bands:  1 eigenvalues not converged
     c_bands:  1 eigenvalues not converged
     c_bands:  1 eigenvalues not converged
     c_bands:  1 eigenvalues not converged
     c_bands:  1 eigenvalues not converged
     c_bands:  1 eigenvalues not converged
     c_bands:  1 eigenvalues not converged
     c_bands:  1 eigenvalues not converged
     c_bands:  1 eigenvalues not converged
     c_bands:  1 eigenvalues not converged
     c_bands:  1 eigenvalues not converged
     c_bands:  1 eigenvalues not converged
     c_bands:  1 eigenvalues not converged
     c_bands:  1 eigenvalues not converged
     c_bands:  1 eigenvalues not converged
     c_bands:  1 eigenvalues not converged
     c_bands:  1 eigenvalues not converged
     c_bands:  1 eigenvalues not converged
     c_bands:  1 eigenvalues not converged
     c_bands:  1 eigenvalues not converged
     c_bands:  1 eigenvalues not converged
     c_bands:  1 eigenvalues not converged
     c_bands:  1 eigenvalues not converged
     c_bands:  1 eigenvalues not converged
     c_bands:  1 eigenvalues not converged
     c_bands:  1 eigenvalues not converged
     c_bands:  1 eigenvalues not converged
     c_bands:  1 eigenvalues not converged
     c_bands:  1 eigenvalues not converged
     c_bands:  1 eigenvalues not converged
     c_bands:  1 eigenvalues not converged
     c_bands:  1 eigenvalues not converged
     c_bands:  1 eigenvalues not converged
     c_bands:  1 eigenvalues not converged
     c_bands:  1 eigenvalues not converged

     ethr =  1.25E-10,  avg # of iterations = 70.6

     total cpu time spent up to now is    76193.3 secs

     End of band structure calculation

     Number of k-points >= 100: set verbosity='high' to print the bands.

     the Fermi energy is    -3.4346 ev

     Writing output data file ./outdir/_ph0/graphene.save/

     Phonon Dispersion of graphene                                              

     bravais-lattice index     =            4
     lattice parameter (alat)  =       4.6980  a.u.
     unit-cell volume          =    1671.6911 (a.u.)^3
     number of atoms/cell      =            2
     number of atomic types    =            1
     kinetic-energy cut-off    =     110.0000  Ry
     charge density cut-off    =     440.0000  Ry
     convergence threshold     =      1.0E-12
     beta                      =       0.7000
     number of iterations used =            4
     Exchange-correlation= PBE
                           (   1   4   3   4   0   0   0)


     celldm(1)=    4.69800  celldm(2)=    0.00000  celldm(3)=   18.61600
     celldm(4)=    0.00000  celldm(5)=    0.00000  celldm(6)=    0.00000

     crystal axes: (cart. coord. in units of alat)
               a(1) = (  1.0000  0.0000  0.0000 )  
               a(2) = ( -0.5000  0.8660  0.0000 )  
               a(3) = (  0.0000  0.0000 18.6160 )  

     reciprocal axes: (cart. coord. in units 2 pi/alat)
               b(1) = (  1.0000  0.5774  0.0000 )  
               b(2) = (  0.0000  1.1547  0.0000 )  
               b(3) = (  0.0000  0.0000  0.0537 )  


     Atoms inside the unit cell: 

     Cartesian axes

     site n.  atom      mass           positions (alat units)
        1     C   12.0100   tau(    1) = (    0.50000    0.28868    0.00000  )
        2     C   12.0100   tau(    2) = (    0.00000    0.57735    0.00000  )

     Computing dynamical matrix for 
                    q = (   0.0000000   0.4811252   0.0000000 )
 
      4 Sym.Ops. (no q -> -q+G )


     G cutoff =  245.9909  ( 130459 G-vectors)     FFT grid: ( 32, 32,600)

     number of k points=  2352  Methfessel-Paxton smearing, width (Ry)=  0.1000

     PseudoPot. # 1 for C  read from file:
     /home/ubuntu/quantum_espresso_2019/SSSP_efficiency_pseudos/C.pbe-n-kjpaw_psl.1.0.0.UPF
     MD5 check sum: 5d2aebdfa2cae82b50a7e79e9516da0f
     Pseudo is Projector augmented-wave + core cor, Zval =  4.0
     Generated using "atomic" code by A. Dal Corso v.5.1
     Shape of augmentation charge: PSQ
     Using radial grid of 1073 points,  4 beta functions with: 
                l(1) =   0
                l(2) =   0
                l(3) =   1
                l(4) =   1
     Q(r) pseudized with 0 coefficients 


     Mode symmetry, C_2v (mm2)  point group:


     Atomic displacements:
     There are   6 irreducible representations

     Representation     1      1 modes -A_1  D_1  S_1  To be done

     Representation     2      1 modes -A_1  D_1  S_1  To be done

     Representation     3      1 modes -B_1  D_3  S_3  To be done

     Representation     4      1 modes -B_1  D_3  S_3  To be done

     Representation     5      1 modes -B_2  D_4  S_4  To be done

     Representation     6      1 modes -B_2  D_4  S_4  To be done



     Alpha used in Ewald sum =   2.8000

     negative rho (up, down):  8.832E-05 0.000E+00
     PHONON       :   2d18h54m CPU   3d19h53m WALL



     Representation #  1 mode #   1

     Self-consistent Calculation

      iter #   1 total cpu time :332180.9 secs   av.it.:   5.6
      thresh= 1.000E-02 alpha_mix =  0.700 |ddv_scf|^2 =  3.567E-07

      iter #   2 total cpu time :334290.1 secs   av.it.:  11.0
      thresh= 5.972E-05 alpha_mix =  0.700 |ddv_scf|^2 =  5.087E-07

      iter #   3 total cpu time :336370.9 secs   av.it.:  10.3
      thresh= 7.132E-05 alpha_mix =  0.700 |ddv_scf|^2 =  7.548E-09

[...]
     MD5 check sum: 5d2aebdfa2cae82b50a7e79e9516da0f
     Pseudo is Projector augmented-wave + core cor, Zval =  4.0
     Generated using "atomic" code by A. Dal Corso v.5.1
     Shape of augmentation charge: PSQ
     Using radial grid of 1073 points,  4 beta functions with: 
                l(1) =   0
                l(2) =   0
                l(3) =   1
                l(4) =   1
     Q(r) pseudized with 0 coefficients 


     atomic species   valence    mass     pseudopotential
        C              4.00    12.01000     C ( 1.00)

     24 Sym. Ops., with inversion, found



   Cartesian axes

     site n.     atom                  positions (alat units)
         1           C   tau(   1) = (   0.5000000   0.2886751   0.0000000  )
         2           C   tau(   2) = (   0.0000000   0.5773503   0.0000000  )

     number of k points=  4608  Methfessel-Paxton smearing, width (Ry)=  0.1000

     Number of k-points >= 100: set verbosity='high' to print them.

     Dense  grid:   260875 G-vectors     FFT dimensions: (  32,  32, 600)

     Estimated max dynamical RAM per process >     135.66 MB

     Estimated total dynamical RAM >     271.31 MB

     The potential is recalculated from file :
     ./outdir/_ph0/graphene.save/charge-density


     negative rho (up, down):  8.832E-05 0.000E+00
     Starting wfcs are    8 atomic +    2 random wfcs
     Checking if some PAW data can be deallocated... 

     Band Structure Calculation
     Davidson diagonalization with overlap
     c_bands:  1 eigenvalues not converged
     c_bands:  1 eigenvalues not converged
     c_bands:  1 eigenvalues not converged
     c_bands:  1 eigenvalues not converged
     c_bands:  1 eigenvalues not converged
     c_bands:  1 eigenvalues not converged
     c_bands:  1 eigenvalues not converged
     c_bands:  1 eigenvalues not converged
     c_bands:  1 eigenvalues not converged
     c_bands:  1 eigenvalues not converged
     c_bands:  1 eigenvalues not converged
     c_bands:  1 eigenvalues not converged
     c_bands:  1 eigenvalues not converged
     c_bands:  1 eigenvalues not converged
     c_bands:  1 eigenvalues not converged
     c_bands:  1 eigenvalues not converged
     c_bands:  1 eigenvalues not converged
     c_bands:  1 eigenvalues not converged
     c_bands:  1 eigenvalues not converged
     c_bands:  1 eigenvalues not converged
     c_bands:  1 eigenvalues not converged
     c_bands:  1 eigenvalues not converged
     c_bands:  1 eigenvalues not converged
     c_bands:  1 eigenvalues not converged
     c_bands:  1 eigenvalues not converged
     c_bands:  1 eigenvalues not converged
     c_bands:  1 eigenvalues not converged
     c_bands:  1 eigenvalues not converged
     c_bands:  1 eigenvalues not converged
     c_bands:  1 eigenvalues not converged
     c_bands:  1 eigenvalues not converged
     c_bands:  1 eigenvalues not converged
     c_bands:  1 eigenvalues not converged
     c_bands:  1 eigenvalues not converged
     c_bands:  1 eigenvalues not converged
     c_bands:  1 eigenvalues not converged
     c_bands:  1 eigenvalues not converged
     c_bands:  1 eigenvalues not converged
     c_bands:  1 eigenvalues not converged
     c_bands:  1 eigenvalues not converged
     c_bands:  1 eigenvalues not converged
     c_bands:  1 eigenvalues not converged
     c_bands:  1 eigenvalues not converged
     c_bands:  1 eigenvalues not converged
     c_bands:  1 eigenvalues not converged
     c_bands:  1 eigenvalues not converged
     c_bands:  1 eigenvalues not converged
     c_bands:  1 eigenvalues not converged
     c_bands:  1 eigenvalues not converged
     c_bands:  1 eigenvalues not converged
     c_bands:  1 eigenvalues not converged
     c_bands:  1 eigenvalues not converged
     c_bands:  1 eigenvalues not converged
     c_bands:  1 eigenvalues not converged
     c_bands:  1 eigenvalues not converged
     c_bands:  1 eigenvalues not converged
     c_bands:  1 eigenvalues not converged
     c_bands:  1 eigenvalues not converged
     c_bands:  1 eigenvalues not converged
     c_bands:  1 eigenvalues not converged
     c_bands:  1 eigenvalues not converged
     c_bands:  1 eigenvalues not converged
     c_bands:  1 eigenvalues not converged
     c_bands:  1 eigenvalues not converged
     c_bands:  1 eigenvalues not converged
     c_bands:  1 eigenvalues not converged
     c_bands:  1 eigenvalues not converged
     c_bands:  1 eigenvalues not converged
     c_bands:  1 eigenvalues not converged
     c_bands:  1 eigenvalues not converged
     c_bands:  1 eigenvalues not converged
     c_bands:  1 eigenvalues not converged
     c_bands:  1 eigenvalues not converged
     c_bands:  1 eigenvalues not converged
     c_bands:  1 eigenvalues not converged
     c_bands:  1 eigenvalues not converged
     c_bands:  1 eigenvalues not converged
     c_bands:  1 eigenvalues not converged
     c_bands:  1 eigenvalues not converged
     c_bands:  1 eigenvalues not converged
     c_bands:  1 eigenvalues not converged
     c_bands:  1 eigenvalues not converged
     c_bands:  1 eigenvalues not converged
     c_bands:  1 eigenvalues not converged
     c_bands:  1 eigenvalues not converged
     c_bands:  1 eigenvalues not converged
     c_bands:  1 eigenvalues not converged

     ethr =  1.25E-10,  avg # of iterations = 70.9

     total cpu time spent up to now is   128447.5 secs

     End of band structure calculation

     Number of k-points >= 100: set verbosity='high' to print the bands.

     the Fermi energy is    -3.4346 ev

     Writing output data file ./outdir/_ph0/graphene.save/

     Phonon Dispersion of graphene                                              

     bravais-lattice index     =            4
     lattice parameter (alat)  =       4.6980  a.u.
     unit-cell volume          =    1671.6911 (a.u.)^3
     number of atoms/cell      =            2
     number of atomic types    =            1
     kinetic-energy cut-off    =     110.0000  Ry
     charge density cut-off    =     440.0000  Ry
     convergence threshold     =      1.0E-12
     beta                      =       0.7000
     number of iterations used =            4
     Exchange-correlation= PBE
                           (   1   4   3   4   0   0   0)


     celldm(1)=    4.69800  celldm(2)=    0.00000  celldm(3)=   18.61600
     celldm(4)=    0.00000  celldm(5)=    0.00000  celldm(6)=    0.00000

     crystal axes: (cart. coord. in units of alat)
               a(1) = (  1.0000  0.0000  0.0000 )  
               a(2) = ( -0.5000  0.8660  0.0000 )  
               a(3) = (  0.0000  0.0000 18.6160 )  

     reciprocal axes: (cart. coord. in units 2 pi/alat)
               b(1) = (  1.0000  0.5774  0.0000 )  
               b(2) = (  0.0000  1.1547  0.0000 )  
               b(3) = (  0.0000  0.0000  0.0537 )  


     Atoms inside the unit cell: 

     Cartesian axes

     site n.  atom      mass           positions (alat units)
        1     C   12.0100   tau(    1) = (    0.50000    0.28868    0.00000  )
        2     C   12.0100   tau(    2) = (    0.00000    0.57735    0.00000  )

     Computing dynamical matrix for 
                    q = (   0.0833333   0.2405626   0.0000000 )
 
      2 Sym.Ops. (no q -> -q+G )


     G cutoff =  245.9909  ( 130459 G-vectors)     FFT grid: ( 32, 32,600)

     number of k points=  4608  Methfessel-Paxton smearing, width (Ry)=  0.1000

     PseudoPot. # 1 for C  read from file:
     /home/ubuntu/quantum_espresso_2019/SSSP_efficiency_pseudos/C.pbe-n-kjpaw_psl.1.0.0.UPF
     MD5 check sum: 5d2aebdfa2cae82b50a7e79e9516da0f
     Pseudo is Projector augmented-wave + core cor, Zval =  4.0
     Generated using "atomic" code by A. Dal Corso v.5.1
     Shape of augmentation charge: PSQ
     Using radial grid of 1073 points,  4 beta functions with: 
                l(1) =   0
                l(2) =   0
                l(3) =   1
                l(4) =   1
     Q(r) pseudized with 0 coefficients 


     Mode symmetry, C_s (m)     point group:


     Atomic displacements:
     There are   6 irreducible representations

     Representation     1      1 modes -A'  To be done

     Representation     2      1 modes -A'  To be done

     Representation     3      1 modes -A'  To be done

     Representation     4      1 modes -A'  To be done

     Representation     5      1 modes -A''  To be done

     Representation     6      1 modes -A''  To be done



     Alpha used in Ewald sum =   2.8000

     negative rho (up, down):  8.832E-05 0.000E+00
     PHONON       :   4d12h14m CPU   6d 2h33m WALL



     Representation #  1 mode #   1

     Self-consistent Calculation

      iter #   1 total cpu time :530382.2 secs   av.it.:   5.1
      thresh= 1.000E-02 alpha_mix =  0.700 |ddv_scf|^2 =  4.730E-08

      iter #   2 total cpu time :534582.1 secs   av.it.:  10.6
      thresh= 2.175E-05 alpha_mix =  0.700 |ddv_scf|^2 =  4.772E-08

      iter #   3 total cpu time :538455.9 secs   av.it.:   9.9
      thresh= 2.185E-05 alpha_mix =  0.700 |ddv_scf|^2 =  1.647E-08

      iter #   4 total cpu time :542268.5 secs   av.it.:   9.6
      thresh= 1.283E-05 alpha_mix =  0.700 |ddv_scf|^2 =  2.287E-10

      iter #   5 total cpu time :546398.3 secs   av.it.:  10.9
      thresh= 1.512E-06 alpha_mix =  0.700 |ddv_scf|^2 =  2.526E-11

      iter #   6 total cpu time :550478.4 secs   av.it.:  10.7
      thresh= 5.026E-07 alpha_mix =  0.700 |ddv_scf|^2 =  4.056E-13

     End of self-consistent calculation

     Convergence has been achieved 


     Representation #  2 mode #   2

     Self-consistent Calculation

      iter #   1 total cpu time :554354.0 secs   av.it.:   5.7
      thresh= 1.000E-02 alpha_mix =  0.700 |ddv_scf|^2 =  1.316E-06

      iter #   2 total cpu time :558488.2 secs   av.it.:  10.4
      thresh= 1.147E-04 alpha_mix =  0.700 |ddv_scf|^2 =  5.914E-06

      iter #   3 total cpu time :562236.1 secs   av.it.:   9.2
      thresh= 2.432E-04 alpha_mix =  0.700 |ddv_scf|^2 =  3.142E-09

      iter #   4 total cpu time :566337.6 secs   av.it.:  11.0
      thresh= 5.605E-06 alpha_mix =  0.700 |ddv_scf|^2 =  1.219E-09

      iter #   5 total cpu time :570388.1 secs   av.it.:  10.7
      thresh= 3.491E-06 alpha_mix =  0.700 |ddv_scf|^2 =  1.764E-11

      iter #   6 total cpu time :574483.8 secs   av.it.:  10.8
      thresh= 4.201E-07 alpha_mix =  0.700 |ddv_scf|^2 =  5.010E-13

     End of self-consistent calculation

     Convergence has been achieved 


     Representation #  3 mode #   3

     Self-consistent Calculation

      iter #   1 total cpu time :578258.6 secs   av.it.:   5.3
      thresh= 1.000E-02 alpha_mix =  0.700 |ddv_scf|^2 =  2.681E-07

      iter #   2 total cpu time :582385.6 secs   av.it.:  10.5
      thresh= 5.178E-05 alpha_mix =  0.700 |ddv_scf|^2 =  1.074E-06

      iter #   3 total cpu time :586114.9 secs   av.it.:   9.2
      thresh= 1.037E-04 alpha_mix =  0.700 |ddv_scf|^2 =  2.829E-09

      iter #   4 total cpu time :590089.6 secs   av.it.:  10.3
      thresh= 5.319E-06 alpha_mix =  0.700 |ddv_scf|^2 =  1.999E-10

      iter #   5 total cpu time :594237.3 secs   av.it.:  10.9
      thresh= 1.414E-06 alpha_mix =  0.700 |ddv_scf|^2 =  3.140E-11

      iter #   6 total cpu time :598311.5 secs   av.it.:  10.7
      thresh= 5.603E-07 alpha_mix =  0.700 |ddv_scf|^2 =  3.678E-13

     End of self-consistent calculation

     Convergence has been achieved 


     Representation #  4 mode #   4

     Self-consistent Calculation

      iter #   1 total cpu time :602259.0 secs   av.it.:   5.7
      thresh= 1.000E-02 alpha_mix =  0.700 |ddv_scf|^2 =  1.536E-06

      iter #   2 total cpu time :606369.0 secs   av.it.:  10.4
      thresh= 1.239E-04 alpha_mix =  0.700 |ddv_scf|^2 =  6.932E-06

      iter #   3 total cpu time :610125.7 secs   av.it.:   9.2
      thresh= 2.633E-04 alpha_mix =  0.700 |ddv_scf|^2 =  3.115E-09

      iter #   4 total cpu time :614255.8 secs   av.it.:  11.0
      thresh= 5.581E-06 alpha_mix =  0.700 |ddv_scf|^2 =  1.215E-09

      iter #   5 total cpu time :618349.7 secs   av.it.:  10.7
      thresh= 3.486E-06 alpha_mix =  0.700 |ddv_scf|^2 =  2.025E-11

      iter #   6 total cpu time :622462.7 secs   av.it.:  10.8
      thresh= 4.500E-07 alpha_mix =  0.700 |ddv_scf|^2 =  8.925E-13

     End of self-consistent calculation

     Convergence has been achieved 


     Representation #  5 mode #   5

     Self-consistent Calculation

      iter #   1 total cpu time :626306.4 secs   av.it.:   5.5
      thresh= 1.000E-02 alpha_mix =  0.700 |ddv_scf|^2 =  1.955E-07

      iter #   2 total cpu time :630427.1 secs   av.it.:  10.3
      thresh= 4.422E-05 alpha_mix =  0.700 |ddv_scf|^2 =  3.401E-08

      iter #   3 total cpu time :634380.4 secs   av.it.:  10.1
      thresh= 1.844E-05 alpha_mix =  0.700 |ddv_scf|^2 =  1.147E-09

      iter #   4 total cpu time :638172.7 secs   av.it.:   9.5
      thresh= 3.387E-06 alpha_mix =  0.700 |ddv_scf|^2 =  6.136E-13

     End of self-consistent calculation

     Convergence has been achieved 


     Representation #  6 mode #   6

     Self-consistent Calculation

      iter #   1 total cpu time :641974.3 secs   av.it.:   5.5
      thresh= 1.000E-02 alpha_mix =  0.700 |ddv_scf|^2 =  1.955E-07

      iter #   2 total cpu time :646044.4 secs   av.it.:  10.3
      thresh= 4.422E-05 alpha_mix =  0.700 |ddv_scf|^2 =  3.401E-08

      iter #   3 total cpu time :649951.0 secs   av.it.:  10.1
      thresh= 1.844E-05 alpha_mix =  0.700 |ddv_scf|^2 =  1.147E-09

      iter #   4 total cpu time :653738.2 secs   av.it.:   9.5
      thresh= 3.387E-06 alpha_mix =  0.700 |ddv_scf|^2 =  6.133E-13

     End of self-consistent calculation

     Convergence has been achieved 
 
     Number of q in the star =   12
     List of q in the star:
          1   0.083333333   0.240562612   0.000000000
          2   0.166666667   0.192450090   0.000000000
          3   0.083333333  -0.240562612   0.000000000
          4  -0.083333333  -0.240562612   0.000000000
          5   0.166666667  -0.192450090   0.000000000
          6  -0.250000000  -0.048112522   0.000000000
          7  -0.250000000   0.048112522   0.000000000
          8  -0.166666667   0.192450090   0.000000000
          9   0.250000000   0.048112522   0.000000000
         10  -0.166666667  -0.192450090   0.000000000
         11   0.250000000  -0.048112522   0.000000000
         12  -0.083333333   0.240562612   0.000000000

     Diagonalizing the dynamical matrix

     q = (    0.083333333   0.240562612   0.000000000 ) 

 **************************************************************************
     freq (    1) =       5.048910 [THz] =     168.413498 [cm-1]
     freq (    2) =      13.378618 [THz] =     446.262664 [cm-1]
     freq (    3) =      19.800928 [THz] =     660.487870 [cm-1]
     freq (    4) =      25.314688 [THz] =     844.407108 [cm-1]
     freq (    5) =      42.703561 [THz] =    1424.437485 [cm-1]
     freq (    6) =      46.546795 [THz] =    1552.633954 [cm-1]
 **************************************************************************

     Mode symmetry, C_s (m)     point group:

     freq (  1 -  1) =        168.4  [cm-1]   --> A''                
     freq (  2 -  2) =        446.3  [cm-1]   --> A'                 
     freq (  3 -  3) =        660.5  [cm-1]   --> A'                 
     freq (  4 -  4) =        844.4  [cm-1]   --> A''                
     freq (  5 -  5) =       1424.4  [cm-1]   --> A'                 
     freq (  6 -  6) =       1552.6  [cm-1]   --> A'                 

     Calculation of q =    0.0833333   0.3367877   0.0000000
 
     Parallelization info
     --------------------
     sticks:   dense  smooth     PW     G-vecs:    dense   smooth      PW
     Min         336     336    105               130416   130416   23377
     Max         337     337    106               130459   130459   23398
     Sum         673     673    211               260875   260875   46775
 

     Title: 
     Phonon Dispersion of graphene                                              


     bravais-lattice index     =            4
     lattice parameter (alat)  =       4.6980  a.u.
     unit-cell volume          =    1671.6911 (a.u.)^3
     number of atoms/cell      =            2
     number of atomic types    =            1
     number of electrons       =         8.00
     number of Kohn-Sham states=           10
     kinetic-energy cutoff     =     110.0000  Ry
     charge density cutoff     =     440.0000  Ry
     Exchange-correlation= PBE
                           (   1   4   3   4   0   0   0)

     celldm(1)=   4.698000  celldm(2)=   0.000000  celldm(3)=  18.616000
     celldm(4)=   0.000000  celldm(5)=   0.000000  celldm(6)=   0.000000

     crystal axes: (cart. coord. in units of alat)
               a(1) = (   1.000000   0.000000   0.000000 )  
               a(2) = (  -0.500000   0.866025   0.000000 )  
               a(3) = (   0.000000   0.000000  18.616000 )  

     reciprocal axes: (cart. coord. in units 2 pi/alat)
               b(1) = (  1.000000  0.577350  0.000000 )  
               b(2) = (  0.000000  1.154701  0.000000 )  
               b(3) = (  0.000000  0.000000  0.053717 )  


     PseudoPot. # 1 for C  read from file:
     /home/ubuntu/quantum_espresso_2019/SSSP_efficiency_pseudos/C.pbe-n-kjpaw_psl.1.0.0.UPF
     MD5 check sum: 5d2aebdfa2cae82b50a7e79e9516da0f
     Pseudo is Projector augmented-wave + core cor, Zval =  4.0
     Generated using "atomic" code by A. Dal Corso v.5.1
     Shape of augmentation charge: PSQ
     Using radial grid of 1073 points,  4 beta functions with: 
                l(1) =   0
                l(2) =   0
                l(3) =   1
                l(4) =   1
     Q(r) pseudized with 0 coefficients 


     atomic species   valence    mass     pseudopotential
        C              4.00    12.01000     C ( 1.00)

     24 Sym. Ops., with inversion, found



   Cartesian axes

     site n.     atom                  positions (alat units)
         1           C   tau(   1) = (   0.5000000   0.2886751   0.0000000  )
         2           C   tau(   2) = (   0.0000000   0.5773503   0.0000000  )

     number of k points=  4608  Methfessel-Paxton smearing, width (Ry)=  0.1000

     Number of k-points >= 100: set verbosity='high' to print them.

     Dense  grid:   260875 G-vectors     FFT dimensions: (  32,  32, 600)

     Estimated max dynamical RAM per process >     135.66 MB

     Estimated total dynamical RAM >     271.32 MB

     The potential is recalculated from file :
     ./outdir/_ph0/graphene.save/charge-density


     negative rho (up, down):  8.832E-05 0.000E+00
     Starting wfcs are    8 atomic +    2 random wfcs
     Checking if some PAW data can be deallocated... 

     Band Structure Calculation
     Davidson diagonalization with overlap
     c_bands:  1 eigenvalues not converged
     c_bands:  1 eigenvalues not converged
     c_bands:  1 eigenvalues not converged
     c_bands:  1 eigenvalues not converged
     c_bands:  1 eigenvalues not converged
     c_bands:  1 eigenvalues not converged
     c_bands:  1 eigenvalues not converged
     c_bands:  1 eigenvalues not converged
     c_bands:  1 eigenvalues not converged
     c_bands:  1 eigenvalues not converged
     c_bands:  1 eigenvalues not converged
     c_bands:  1 eigenvalues not converged
     c_bands:  1 eigenvalues not converged
     c_bands:  1 eigenvalues not converged
     c_bands:  1 eigenvalues not converged
     c_bands:  1 eigenvalues not converged
     c_bands:  1 eigenvalues not converged
     c_bands:  1 eigenvalues not converged
     c_bands:  1 eigenvalues not converged
     c_bands:  1 eigenvalues not converged
     c_bands:  1 eigenvalues not converged
     c_bands:  1 eigenvalues not converged
     c_bands:  1 eigenvalues not converged
     c_bands:  1 eigenvalues not converged
     c_bands:  1 eigenvalues not converged
     c_bands:  1 eigenvalues not converged
     c_bands:  1 eigenvalues not converged
